LAMMPS data file via write_data, version 27 Oct 2021, timestep = 750000

1038 atoms
6 atom types

-0.17029157364761716 22.170291573645653 xlo xhi
-0.17029157364761716 22.170291573645653 ylo yhi
-0.17029157364761716 22.170291573645653 zlo zhi

Masses

1 1.00794
2 15.9994
3 26.981538
4 28.0855
5 39.0983
6 40.078

Atoms # charge

160 1 0.3921853782480688 7.673344760308911 0.7751732327013612 5.123721723189953 -460 215 -14
449 1 0.4046722050814088 4.804658173464472 5.503773864244574 4.809043310711466 -460 215 -14
281 2 -0.8049475237987208 1.5787342825945563 8.83220777662019 9.610851667541189 -460 214 -14
559 4 1.557375044100594 10.400165497727091 -0.07829802632250554 2.3385465013655025 -460 215 -14
792 3 1.3954973473657502 5.666462290250403 0.040531855314404126 1.4316065723354106 -460 215 -14
284 2 -0.8556736409623216 -0.06432709400480974 10.492428204943735 8.686843529581424 -460 214 -14
217 4 1.4996751546281732 2.4543400798229777 0.4077629079781247 5.6220118734396225 -460 215 -14
156 2 -0.824740169419989 8.153013980908588 -0.05151078664982826 5.4172896537998145 -460 215 -14
282 2 -0.8294457757446573 -0.026340635233054854 8.13538355824682 7.785757043284768 -460 214 -14
219 2 -0.8434314660499401 3.6925259918217663 0.39389289146127504 6.5690745571817 -460 215 -14
789 1 0.31007611978674565 3.670794988586961 10.887457303832944 3.0971058664886777 -460 214 -14
751 2 -0.8704137409673023 9.77764194512766 -0.0066004471561194634 10.174116206167371 -460 215 -14
223 1 0.40490820796453986 3.54957027377797 0.8352261620062493 7.460835822826638 -460 215 -14
122 2 -0.8075733153983518 5.507468048293943 0.2217488753755703 9.565986878124647 -460 215 -14
445 2 -0.819680823912732 6.149122054491813 4.642569222028025 5.132864120797496 -460 215 -14
121 2 -0.8177969058983048 3.499572421247561 1.7078384642475295 9.097248893224238 -460 215 -14
812 1 0.4055049961759611 2.1392326943846816 7.381324502013564 8.187907528689902 -460 215 -14
902 1 0.33541519720165236 0.35843204037595383 1.2754182083850174 1.6790192095868341 -460 215 -14
899 2 -0.8370349180328684 0.6189920868964787 1.762700107401372 2.5573179762595792 -460 215 -14
615 2 -0.8361505384429615 0.13449306096023697 3.858067931954047 9.368645248088951 -460 215 -14
693 1 0.4343766348643846 0.1925171145428498 2.893282909232001 9.632252398672973 -460 215 -14
809 2 -0.8135360849581063 2.6881932144886194 6.650601166388942 7.685015139969473 -460 215 -14
119 2 -0.8174341377393204 5.72473786246645 2.688262451808547 10.094459537145273 -460 215 -14
91 5 0.7197714347930517 4.710824637877344 8.582442914424414 2.181295823223273 -460 214 -14
797 1 0.29461258710127664 3.483755159584592 0.2276082552997529 2.86839217925164 -460 215 -14
1036 2 -0.8031343495566989 0.8058725892894515 7.225962093394901 4.781953692784301 -460 215 -14
762 1 0.38562487629636455 6.224798888970375 7.989586578880744 10.962469481407627 -460 215 -14
747 1 0.353528127102178 7.715639065479752 8.490995693140354 2.406910408953367 -460 214 -14
819 1 0.39276430461370265 8.742930285830687 8.572629559801099 7.620359123505722 -460 214 -14
903 1 0.30540736930487744 2.481535454515828 3.8013929299900022 3.8600950266512264 -460 215 -14
92 2 -0.7352814692318246 0.76667564810999 10.207169302637183 3.1368957780014926 -460 214 -14
663 1 0.4095044524442899 8.460579110706279 0.8848301654425683 2.059301879510815 -460 215 -14
560 2 -0.8000021813990553 9.475183897869458 1.1074570593098014 1.9686645032065853 -460 215 -14
810 1 0.3958542704775416 3.52028759047777 3.1723491613890005 6.894423918938255 -460 215 -14
816 2 -0.7751656204308317 8.854365186242514 9.43232920689894 7.037418688900717 -460 214 -14
280 4 1.417017411609437 0.13318531539983047 9.00286373971063 9.062278604737216 -460 214 -14
125 1 0.35320655130423456 2.6158238094407054 1.6148545526614682 9.536417879174259 -460 215 -14
1014 6 1.4166144555373226 7.113054714360801 6.093180048614175 6.786952565195059 -460 215 -14
754 1 0.44606345995740826 7.517965997145276 2.1271084323965423 10.079362714315877 -460 215 -14
222 1 0.45412002259744133 0.31744631868500606 0.3824419511127144 6.1050368996801865 -460 215 -14
546 1 0.42264136309438294 9.79604918266174 9.200026137955906 10.350278163451657 -460 215 -14
666 1 0.4385013796206667 9.709179615943597 9.283449023929093 5.563079015568599 -460 215 -14
686 2 -0.8669465994509987 0.38120228794501043 1.1718567365894421 10.315062027558323 -460 215 -14
446 2 -0.8733458402234355 5.254429006862401 2.5800571748974948 6.120959474318542 -460 215 -14
500 2 -0.8217541853422223 10.048142140990555 9.102863493739514 4.6337562443748626 -460 214 -14
744 1 0.42248542973507947 7.349199464480367 9.858443789904879 6.491055320556404 -460 214 -14
442 4 1.5536759371364521 5.840265679985515 3.1910213384939614 4.829995275193692 -460 215 -14
660 2 -0.8929578049624044 10.376548848822361 4.823885611896942 4.0672875333378915 -460 215 -14
881 1 0.36510254563023603 9.855218427280546 10.829211804933012 1.2262716649061303 -460 214 -14
807 2 -0.8129450806305031 3.001649048049363 4.066467171952954 7.135216156615841 -460 215 -14
740 2 -0.8207338055692396 6.500198372791028 10.31084476788028 6.143441357988589 -460 214 -14
743 2 -0.8315286315094355 5.656347683966669 7.917894939967299 6.124188664329759 -460 214 -14
118 4 1.3812915921685982 4.719790675626362 1.4772779024867384 10.069130266747223 -460 215 -14
795 2 -0.8172215154222217 6.906443588091832 1.3668026599493295 1.9528949640374327 -460 215 -14
450 1 0.42676712832018926 4.997026819526752 1.63750537128465 6.101163381908108 -460 215 -14
794 2 -0.8370037800759402 3.886705739154659 0.14638924563617214 1.9211005554292104 -460 215 -14
808 2 -0.8262003832915612 5.432516164727664 4.995813244815188 8.08967905017105 -460 215 -14
225 1 0.3614266123574629 1.8788495165256156 1.3926919450543136 3.7683361950830174 -460 215 -14
662 2 -0.8404829563001935 10.869302509972917 6.616944126029222 2.454236278879894 -460 215 -14
43 5 0.7034824384702364 2.771222674420605 2.3566357236670625 1.208558956443895 -460 215 -14
874 1 0.3560824392723734 6.971072302427118 8.91869292327917 9.268529206994774 -460 214 -14
1034 6 1.4529667354205857 1.7943326770219719 5.542519057616062 5.816140224211089 -460 215 -14
900 2 -0.8774691784939564 1.5608419324164624 4.312745928269881 3.789686364491295 -460 215 -14
73 5 0.7311094509150192 1.3529895139334023 9.816280359005052 5.588876655807936 -460 214 -14
836 2 -0.7217692513949563 10.137586984019505 2.763536072451478 5.853198799302724 -460 215 -14
259 1 0.42025392698245156 0.6181741980871507 4.999123397725775 10.760237626808683 -460 215 -14
254 2 -0.8676334247874299 3.166601306361454 5.173034223498247 10.175139629009305 -460 215 -14
448 1 0.39016669976761 6.916356767561731 1.9064866614815374 3.427988629306066 -460 215 -14
839 1 0.3884342877860238 9.396787520433246 2.145767036985886 5.541673963639382 -460 215 -14
1008 1 0.3432948657741487 6.139140795666858 3.8954230608767944 1.9781709663495948 -460 215 -14
659 2 -0.8394818254447504 9.342443867882407 4.909850672613703 1.7534854763289474 -460 215 -14
547 1 0.3871346978650335 9.458136124298223 5.286889514271769 10.705632275317482 -460 215 -14
447 1 0.348796311943111 4.024303030619297 2.51082490133785 3.9187734835094687 -460 215 -14
1016 2 -0.7439199676739713 7.526078496808203 8.580738035271846 3.3539570022592056 -460 215 -14
750 2 -0.777951217703577 8.497223753428832 2.1438551248147393 10.03235697783633 -460 215 -14
897 3 1.3093961676789994 0.025141059467351567 3.449569459550143 3.105489643705918 -460 215 -14
871 2 -0.7567316647483292 6.166643718298994 9.478059331399542 9.579071655913832 -460 214 -14
1035 2 -0.7478832758947118 4.066985317052559 6.244631944692009 4.857350233976621 -460 215 -14
1018 1 0.3892795592448485 8.393009073869028 8.725826992067015 3.7650635358568865 -460 215 -14
1037 1 0.38888660907610206 4.5788922997204065 7.046911511539949 5.330312398941722 -460 215 -14
187 1 0.41927109949809704 10.54856792092275 3.3305846014061196 10.920103212009916 -460 215 -14
746 1 0.37766105868699024 4.10055430624979 10.840493527187066 5.0958759689637585 -460 214 -14
1015 2 -0.7822739047798366 8.666329687206712 4.325036441170069 7.186169291847748 -460 215 -14
542 2 -0.8870038039195183 9.099341274977425 8.538493915305393 10.575319799156837 -460 215 -14
798 1 0.3314291849470622 7.09054177124863 2.2370409243648 1.4363983890215177 -460 215 -14
777 1 0.37490210212580366 1.7010209962304543 5.827974101601656 2.6850439902651417 -460 215 -14
806 3 1.4210426262535059 3.6247111166212655 5.240952545394179 8.489755508309766 -460 215 -14
312 1 0.3890668503083924 1.2999822639776513 7.262128741245385 3.213885159557496 -460 215 -14
414 1 0.4438619822416555 10.002668700600216 7.752410167033605 1.4547712997936675 -460 214 -14
218 2 -0.7790550969509105 1.1852696611693685 0.6237053706751123 6.524189342578911 -460 215 -14
745 1 0.4071421488173877 5.111693203640748 9.517784085655432 8.324927325839393 -460 214 -14
617 2 -0.8779616905039318 -0.14472197941911702 4.637078833476267 6.895252332931251 -460 215 -14
838 1 0.38962647957024554 9.330604656396059 7.083650199875171 4.93190289213535 -460 215 -14
785 3 1.3800792904458168 1.5819189963202676 10.617921601625506 1.4979497864475544 -460 214 -14
834 3 1.4524576115635373 10.088365042706725 4.683355376420945 5.847871705476739 -460 215 -14
285 1 0.41640165333349266 1.5841970552376392 8.985515551599873 10.566070067039364 -460 214 -14
123 1 0.37672298801079074 5.539809135329502 3.3735912807709516 9.399663459570494 -460 215 -14
543 2 -0.8659312170468201 8.707151503162343 6.0263158624635755 10.656220336593956 -460 215 -14
545 2 -0.7978793898014302 10.613255160604522 7.01531580077857 9.249682306927038 -460 215 -14
1002 3 1.4640342744688515 8.096806432621154 5.027140382954192 0.4862747128504972 -460 215 -14
741 2 -0.8399316054284365 4.511527914529212 9.670066558039661 7.488396437117966 -460 214 -14
221 2 -0.8782250507166475 2.5885988543926652 1.485161489882626 4.506827864616495 -460 215 -14
548 1 0.43527496676031474 9.16501365215317 10.142659861757211 7.644666004745963 -460 215 -14
1017 1 0.3809570701061192 8.699356513873457 3.5604867088071854 7.837918535252983 -460 215 -14
811 1 0.3022726294160179 5.7137369290805715 4.189506529069977 7.430647852434468 -460 215 -14
443 2 -0.8514267742940438 4.763225754293876 3.122643578751135 3.686418969335086 -460 215 -14
658 4 1.6792996071713049 10.540500166140294 5.136632413279611 2.642084120734209 -460 215 -14
835 2 -0.7910073109202228 9.036919279794864 6.354564252174225 5.567593821478335 -460 215 -14
541 4 1.5073896522469992 9.153846605878696 7.227210307655912 9.738930912899242 -460 215 -14
444 2 -0.816678664937798 7.0471278763407685 2.3113503986618453 4.414382511788452 -460 215 -14
774 2 -0.7270353742620457 1.6711335984637385 6.762814449869625 2.4045364422313042 -460 215 -14
742 2 -0.859508788726643 4.307098021971729 9.873833198477548 4.994558237235333 -460 214 -14
1003 2 -0.7260024144281021 4.20409868865522 6.563027904762055 0.7171234010672937 -460 215 -14
183 2 -0.8086723245558266 10.96368847025571 4.185544770707984 10.629085101948974 -460 215 -14
739 4 1.5256649870162844 5.251606685625196 9.37874369159564 6.162260677043226 -460 214 -14
544 2 -0.8611497738510572 8.237431814747886 7.324588380159056 8.540690912059498 -460 215 -14
786 2 -0.7993637126178154 3.368919968824845 10.827668182232443 2.120463960775917 -460 214 -14
564 1 0.4021569721003654 10.09791597783967 1.6928624836122252 0.33922868779024745 -460 215 -14
409 2 -0.9298510989938857 7.224280833825906 9.027422920247963 0.6014529938665067 -460 214 -14
1005 2 -0.9133951954900179 6.4004451027855636 4.376084289760479 1.0244937032959256 -460 215 -14
1006 1 0.3953545295875174 3.2529064535336754 6.5955889316358425 1.069229582173849 -460 215 -14
315 1 0.3990910190771896 0.3541500853661873 4.359224870204476 0.3392598904176258 -460 215 -14
410 2 -0.8619464507222601 9.65641156523196 8.568785944075545 0.9556443714288405 -460 214 -14
407 2 -0.9421434895876152 8.145007024106263 6.770066647243623 0.18449125759184426 -460 214 -14
788 2 -0.858695445255856 1.865181351670494 9.262493405685921 0.1624797427258038 -460 214 -14
413 1 0.40047664198497 6.849359608154565 9.633517229239732 -0.09216260526525133 -460 214 -14
406 4 1.6340169757848761 8.433564169134964 8.227038168864976 0.06315433549164595 -460 214 -14
919 2 -0.7902126015715141 9.545362162173399 4.695929147134551 16.040610192405737 -460 215 -14
386 1 0.4119301465818934 0.19448095422758835 8.055818191067113 13.073121293410049 -460 214 -14
873 1 0.3025736202383476 7.7768751052254625 9.572510388297214 12.011663621489857 -460 214 -14
200 2 -0.8950649997442741 9.066127286391495 0.45214287119295093 18.523632110664895 -460 215 -14
623 2 -0.7912726182311522 0.5874257804961421 6.326248535955602 14.178577763991976 -460 215 -14
680 2 -0.9290624965106916 5.800394786321417 0.42511288690250026 22.05592261643382 -460 215 -15
676 4 1.5365327397990107 5.7765341911661015 0.8674447262581664 20.623386575345442 -460 215 -15
236 2 -0.8689557780839022 6.023550025841215 0.5534015894603068 15.479647492725622 -460 215 -14
2 2 -0.7733838044758397 10.398140574583964 2.057987569332341 21.805264516620966 -460 215 -15
50 2 -0.7890281552208357 9.724686730449788 7.78068175143488 16.12455221048378 -460 215 -15
911 3 1.3880453943342792 1.3912603782443544 9.807250232675552 16.223769759106816 -460 214 -14
679 2 -0.8809529808602581 7.066339061047649 1.6609783214060632 20.292684860945055 -460 215 -15
677 2 -0.7926888862924454 4.561241060534719 1.7864975629534703 20.332955510722037 -460 215 -15
408 2 -0.8303952077708818 8.667831690355671 8.577729165604119 20.951256025665298 -460 214 -15
925 3 1.426185977957568 0.18488027114718864 8.48896936956947 22.057043030327577 -460 214 -15
894 1 0.3992359589429192 1.8286743488587558 0.9834604634395477 18.86832325272116 -460 215 -15
303 1 0.37998453705496876 5.64119413628258 8.608143611117764 18.169778505638398 -460 214 -15
203 2 -0.8370405094531822 9.623031689497555 2.69093348983973 17.880730704996516 -460 215 -14
37 5 0.7500249497395763 3.0254378590504754 1.3496934958432962 15.989441782779881 -460 215 -15
913 2 -0.815056653377602 2.9789551601882476 10.655309138173859 16.74573785695656 -460 214 -14
914 2 -0.8167722042310905 1.2352646179799378 8.006480028203304 16.67145923224007 -460 214 -14
302 2 -0.8013388855586903 4.321073350798498 9.908340033308603 20.6450260348105 -460 214 -15
771 3 1.3415312198456624 5.18852125555088 5.231175322130032 22.15095692599408 -460 215 -15
681 1 0.36292997726708737 4.410302644352136 2.5410292746940715 21.006694033179418 -460 215 -15
48 1 0.4058257650801104 10.369187793205974 8.404067232604126 16.514993869211292 -460 215 -14
1004 2 -0.8001489186522468 8.583702228179146 3.9496616432309404 21.331971049667878 -460 215 -15
494 1 0.4108180643244732 7.600215007571335 1.271862824977208 19.545826171711067 -460 215 -15
688 2 -0.7947762005634388 1.492890769522393 0.9175230108398811 12.652791624629218 -460 215 -14
233 1 0.3861471768571565 4.26994628649961 9.646143638219103 16.687702030992476 -460 214 -14
246 2 -0.7567183211359645 7.279799762768801 4.130830686529837 12.571151695600571 -460 215 -14
912 2 -0.8150176401941028 -0.06508292274563487 10.487885775888953 17.14591638929065 -460 214 -14
775 1 0.3976874498644477 2.8527247127004247 4.06141587428029 21.507885443598052 -460 215 -15
186 1 0.37777503741138907 8.097418034755625 8.673777401837281 15.799302945290576 -460 215 -14
929 1 0.4028947707332235 2.807874249349308 7.892937978642298 18.707524072637963 -460 214 -15
245 2 -0.7532840759197962 4.354871792775635 3.9515571432121654 14.683970358022625 -460 215 -14
799 3 1.4060994754924816 2.4751757470570843 4.99510020586866 18.276733236824704 -460 215 -15
308 2 -0.9083434297751649 0.4608469197531589 6.870228065965684 21.35565173075144 -460 215 -15
229 2 -0.8520374521600611 5.055425124121186 8.968208515877047 16.466491776326517 -460 214 -14
890 3 1.3209803910704376 0.5287710826447828 2.8341209416804074 17.444472439051257 -460 215 -15
307 4 1.6408027603280673 0.5408402141446629 5.442147148158377 20.8740381603647 -460 215 -15
1 5 0.7373416481075414 6.3609585639077855 4.141616544261012 18.684554804105385 -460 215 -15
918 3 1.4455786745535308 10.908643162015649 4.3230231842982905 14.7076931663152 -460 215 -14
917 1 0.3291530437481558 0.6241894363972452 7.307442469588435 16.189181161410204 -460 214 -14
383 2 -0.9330546279973008 1.5256513116804464 9.768055599051179 14.469991816902853 -460 214 -14
800 2 -0.9073928341593389 1.197669787239947 4.5689358030828044 16.92738869694167 -460 215 -15
311 2 -0.8718658644783308 1.0692901265861314 4.525552837698273 21.9868464486267 -460 215 -15
51 1 0.38640590596883573 10.199331976188159 6.915398875583757 16.034533437127344 -460 215 -15
892 2 -0.785103438022084 0.4984312838124968 1.9250829501305116 15.751571711201626 -460 215 -15
228 2 -0.8327144616976397 6.761053688551865 10.835929690899778 16.230361073161788 -460 214 -14
627 1 0.40713780131158345 0.939110950556428 6.258012708475339 13.253726842949044 -460 215 -14
257 2 -0.9100513138622567 3.2454422607071014 6.341047092141313 12.42026148429324 -460 215 -14
47 2 -0.7892202947868285 6.417721239602467 6.202386781858365 16.71401659966709 -460 215 -14
761 1 0.31834304510060485 4.95293416982535 5.955017059921189 13.437672343108336 -460 215 -14
802 2 -0.7512960789857709 3.56271570285598 6.457294684800995 17.793599737247835 -460 215 -15
244 4 1.1440401242659353 5.867658551186741 3.7333532701303516 14.122864384548931 -460 215 -14
801 2 -0.785299609532085 3.8473009871948958 3.7356031252990545 18.440236792634746 -460 215 -15
760 2 -0.7853987605616544 8.73824731671463 6.915382554462028 13.354848218188058 -460 215 -14
314 1 0.370952435383913 2.014621042277504 7.448436175790805 19.973152206856764 -460 215 -15
1032 1 0.3721379722775911 10.87123952928561 2.3631346026564963 18.879417121719133 -460 215 -15
202 2 -0.8814543067566973 7.421135824983509 1.7384470714289975 17.243463274723762 -460 215 -14
926 2 -0.7524424442011944 2.461763503644036 8.22565615712454 19.57283331002625 -460 214 -15
922 1 0.41658511576006935 6.392513065997763 5.511336415610376 16.030511349065762 -460 215 -14
310 2 -0.9538623468909724 1.4876996423360391 5.353736258640732 19.715022726405973 -460 215 -15
384 1 0.4047150649916246 3.9058957372417327 9.410157520041041 13.30298698831309 -460 214 -14
923 1 0.3524099364324136 8.630777922667974 3.0890020731530767 14.12519004678722 -460 215 -14
1007 1 0.36991506273084523 8.058032907231022 3.1927203390046768 20.869055277782177 -460 215 -15
776 1 0.35535176449677797 5.8677662871892 6.779068332656477 20.09607017146013 -460 215 -15
227 2 -0.8090032100306838 5.441432537651218 9.906743376150116 14.142269714690194 -460 214 -14
629 1 0.3953867968502058 0.463650632003097 4.2496386519336165 13.266072903738278 -460 215 -14
255 2 -0.8191359381968023 1.0527145679814447 5.469273298091196 11.520061025760263 -460 215 -14
248 2 -0.7585260242917051 5.676902455658246 2.280591628846092 13.572097709496836 -460 215 -14
250 1 0.36414441181889495 6.9492948399861225 3.5156459325515823 11.809687994151089 -460 215 -14
247 2 -0.7806445458773076 6.74919504448777 3.664384888160021 15.436896051949667 -460 215 -14
256 2 -0.8224040064295626 2.760980471282527 3.8620679579268256 12.35405010992326 -460 215 -14
251 1 0.39812502828428165 6.6854837798285764 2.7876490321619305 15.89807971289868 -460 215 -14
67 5 0.709821305192478 10.747963247805588 8.493723052541727 13.096396574346661 -460 215 -15
230 2 -0.8291239582222302 7.2513157130183945 8.537907540200507 15.302058360568857 -460 214 -14
261 1 0.4130010716688878 2.8711283106118257 7.251714618058368 12.303690907743562 -460 215 -14
891 2 -0.7816743054766853 1.8698486487522077 1.747916698360266 18.207510186703168 -460 215 -15
791 1 0.34498227157473066 2.804329480384366 9.122116524943516 21.927279416025286 -460 214 -15
199 4 1.6382572583131991 8.905235763669154 1.4585526807498874 17.417566012168855 -460 215 -14
249 1 0.3975287308338671 3.703000080440015 3.901372454587837 13.953858187275442 -460 215 -14
411 1 0.4075189186305725 10.090125194941571 8.96775199025824 20.307487323628266 -460 214 -15
252 1 0.39938828078384747 5.841559460170005 1.498497024773035 14.418049655195109 -460 215 -14
773 2 -0.8291292478811373 5.866230536262191 5.850600502717437 20.527580802185714 -460 215 -15
206 1 0.39931949439617703 7.006378354899552 1.0524077084768915 16.513911061510516 -460 215 -14
763 1 0.39383634567743886 8.716366791460421 7.253882775663957 14.336103241500123 -460 215 -14
920 2 -0.7665586759284283 9.615343591164649 2.884112283363795 14.248988650403806 -460 215 -14
207 1 0.38098847731387736 8.59345049292262 4.327010302878123 16.028004860309874 -460 215 -14
1031 2 -0.7709441957343081 9.97893138912506 5.300912416788376 19.380542938507705 -460 215 -15
772 2 -0.805026168686623 3.833832389434813 3.904610371845136 21.81539730793284 -460 215 -15
3 1 0.4393060324149423 9.797108350247667 2.917281086817705 21.64883741528137 -460 215 -15
226 4 1.4033969738200567 6.122980684216566 9.593564612675486 15.514218575140493 -460 214 -14
306 1 0.45085233453827755 3.628870179773917 9.302259416871424 20.221523201066404 -460 214 -15
46 5 0.7260881774964767 3.1472545875138476 6.929699831500941 15.340746490050545 -460 215 -14
300 2 -0.7821346586170744 6.853030710013849 10.399088174178305 20.6585569945017 -460 214 -15
299 2 -0.8526460186525057 5.87525996095576 8.641826571059573 19.13145231514835 -460 214 -15
298 4 1.3978759840491835 5.621793714793427 10.052323183012277 19.770981870338698 -460 214 -15
201 2 -0.8540554181951971 9.471758661637992 0.9541051735039446 16.082913223045242 -460 215 -14
1033 1 0.397664366633035 9.456322261069623 4.845854659167757 20.064620742642635 -460 215 -15
49 5 0.6882312857639813 8.317795386528497 7.3547893160254025 18.592019063150047 -460 215 -15
805 1 0.3576128755890827 4.563501687120652 6.53058389245675 17.619637423821946 -460 215 -15
205 1 0.4235518796301384 9.564717609051867 1.7571099396106844 15.395752457836744 -460 215 -14
234 1 0.39404567509333266 6.490840827916734 7.034030025485422 16.209351389353532 -460 214 -14
692 1 0.41341780014845436 2.2847586497393917 1.1821408391369224 12.123607658285096 -460 215 -14
253 4 1.4864621291488926 2.5960996265632157 5.216536302829218 11.573126985498648 -460 215 -14
803 1 0.3601695608912972 0.7792117199637839 5.196771078295197 16.13978388930856 -460 215 -15
412 1 0.4021786006583396 7.657543020307178 9.628212067125403 20.56605427758933 -460 214 -15
804 1 0.4175895964871704 3.9252272764648266 2.811954125676997 18.908210686866262 -460 215 -15
231 1 0.39645532897613683 6.12567908891035 10.0995647642794 13.371259990898599 -460 214 -14
870 2 -0.7992226974039747 7.097643964277239 10.362412181753871 12.061191066684888 -460 214 -14
895 1 0.3708433538108638 0.13909557264638245 2.251625736707507 14.863925486156049 -460 215 -15
42 1 0.40329759845331226 10.881288384704485 6.096880432192105 20.365373085178312 -461 215 -15
685 4 1.4451533711866043 0.13669631840715107 1.003345827511105 11.86077868974094 -460 215 -14
758 2 -0.7292563366444742 5.936416845538875 5.78435177795248 13.7243024410861 -460 215 -14
380 2 -0.8298382514497118 3.218416926772856 9.05499092068404 12.67732631820021 -460 214 -14
757 3 1.452593544894885 7.401102438373136 6.037668469225245 12.424077957561302 -460 215 -14
379 4 1.3875875528165433 1.7711886825584178 9.562555305235348 12.99808915318656 -460 214 -14
382 2 -0.8398301163377788 0.7787048417268143 8.510991761625768 12.398797941679275 -460 214 -14
753 1 0.42798743697974717 9.850966395493886 2.202204503574563 12.822765369531925 -460 215 -14
341 1 0.3789407197086331 0.1144398594108923 0.33506092536374066 15.950408150564938 -460 215 -14
381 2 -0.8223846630471483 1.5475411691669856 10.873187236218806 12.17659127946807 -460 214 -14
120 2 -0.8503299757182369 4.119192717929854 1.3466300348319653 11.512795342303448 -460 215 -14
124 1 0.4236344857371387 4.771002406422704 1.6176759758107508 12.24816966127198 -460 215 -14
749 2 -0.8216923107281855 10.216584637115115 1.8090382626466899 11.889748977530138 -460 215 -14
752 2 -0.8106895818818874 8.093789614954812 0.4264422599434423 11.957898943613875 -460 215 -14
258 1 0.3706599506563633 5.052317957352683 7.08629051270529 11.709463252255137 -460 215 -14
260 1 0.3642235331667211 3.265266442007776 3.175489870485356 11.843637839632004 -460 215 -14
748 4 1.4274657794797543 9.15250433189961 1.0946648191412875 11.01206039446637 -460 215 -14
875 1 0.3860227413520433 3.657374426776582 10.974978852675735 11.363223621547498 -460 214 -14
759 2 -0.794793049024832 6.0312370593974975 7.048634670670135 11.344270997231398 -460 215 -14
526 2 -0.8375645224603288 1.0301611675829796 13.91675254315745 10.66505958683644 -460 214 -14
194 2 -0.9140248291848714 6.878192522883175 12.486800684269433 9.860097953674469 -460 214 -14
88 5 0.6885739923547515 2.878474253816004 11.481389643764564 8.704382123174383 -460 214 -14
103 5 0.6936468864125831 7.40007208450362 11.312360954259677 2.582852807486122 -460 214 -14
880 1 0.38938663318208205 7.9500421943542525 14.051831106697742 3.4193089337662985 -460 214 -14
64 5 0.7053895926729163 0.9339680201402566 14.440259119958997 1.508252744707004 -460 214 -14
528 1 0.41738635624972964 5.534850726293448 14.626340403984283 9.8582367365837 -460 214 -14
485 1 0.3648852181154295 9.058659645904996 12.233822967657519 8.886036004761813 -460 214 -14
563 2 -0.8500637759525326 10.76177395916922 21.600442461036295 0.9802969463970196 -460 214 -14
716 2 -0.95035000342165 4.806124776921686 16.911996282818727 3.8668379889084625 -460 214 -14
532 4 1.5166628650148866 5.626663544111597 16.320745608689776 0.278627266327976 -460 214 -14
23 2 -0.847242749655134 0.21809607348099547 20.024425555908923 6.016441585120253 -460 214 -14
869 3 1.4559730867326457 6.172127659287704 11.04814378903536 10.585142813879912 -460 214 -14
456 1 0.39206169618611547 0.14760214521258186 19.50973668022499 2.3260823219240705 -460 214 -14
481 2 -0.8199837743800718 9.532715075115705 11.318263897071091 8.996671205376726 -460 214 -14
58 5 0.7058491907020624 1.2764423159834093 20.848353251974597 8.798096255513576 -460 214 -14
796 1 0.3805292717411782 6.587783068863883 20.418385041867626 2.9562000971000195 -460 214 -14
778 3 1.3868980484423772 9.571953038562595 14.25610470733236 7.025462471298759 -460 214 -14
525 2 -0.7966140139111093 2.3498610010480503 14.549651989081834 8.564258224824405 -460 214 -14
883 3 1.4235567236557842 10.204942056854668 21.030878080428714 9.083137841347925 -460 214 -14
152 1 0.43482314910012937 10.457774276301746 19.71810653358444 3.966712524575471 -460 214 -14
75 1 0.42949499600200397 4.796200097979865 13.75694329681473 1.6620919238535636 -460 214 -14
452 2 -0.7104065967236252 0.6343176276027345 20.078176080574064 1.6018864052178616 -460 214 -14
882 1 0.4077245462142962 6.684119891510077 12.142914903791608 6.298320957918048 -460 214 -14
162 1 0.42278253632003787 5.381059195038519 20.18270086033293 4.9556101272045945 -460 214 -14
457 1 0.3767335215208344 3.028461685735814 21.31394230053059 0.9341620271250684 -460 214 -14
478 4 1.4688032315123474 10.988125066422576 11.438136332825906 9.533917869292592 -460 214 -14
768 1 0.31734266705801134 5.523887474621439 17.17796716766035 10.338053342612781 -460 214 -14
766 2 -0.8156045552458806 5.340185068800257 20.24841250056648 10.951515249645237 -460 214 -14
158 2 -0.869492560064889 6.136313830341743 20.842445613371986 4.705186382263035 -460 214 -14
991 2 -0.850785995180983 9.739398499312355 15.105758429032667 1.2711714047936047 -460 214 -14
781 2 -0.8404115478753558 9.280294300937394 15.991628763849132 6.4198978376934 -460 214 -14
719 1 0.4606815878142198 8.163347101126197 17.201209141680224 3.415885257214521 -460 214 -14
1010 2 -0.709998148720858 4.5601927598048455 17.14105128266579 7.365213965603927 -460 214 -14
30 1 0.3412558472932328 1.525677807243913 18.649022698419657 10.52024796772279 -460 214 -14
720 1 0.4239944771263063 3.712940281371912 13.389148782807275 3.281372554204909 -460 214 -14
765 2 -0.8045806365275796 4.568410401532568 17.52066080695267 10.104487094029018 -460 214 -14
1012 1 0.4360582816373883 4.173187924063095 16.307671598179347 7.024630142920444 -460 214 -14
872 2 -0.8081555663801179 4.374131482380921 11.444213044996701 10.797735831731588 -460 214 -14
126 1 0.3997167811083087 5.515085425244747 21.766895067178403 10.232340592569537 -460 214 -14
878 2 -0.8122276829329055 9.551031118082252 11.78695732239494 1.1875757782619334 -460 214 -14
868 1 0.35101843102418384 3.393644479717339 20.553641788836902 2.877197393429712 -460 214 -14
29 2 -0.8483868304777932 2.259306156599447 19.350191941910225 10.687757731640929 -460 214 -14
24 1 0.39321130333250337 0.9860821655721697 20.49089088870139 5.688784235624189 -460 214 -14
764 3 1.3255776943708482 4.018160785068318 19.29544065371756 10.01346882905596 -460 214 -14
864 2 -0.7710385202656733 1.9052090474422883 17.458057256458698 5.018084870920142 -460 214 -14
885 2 -0.8360706262120665 10.831430703826895 21.734511421618596 7.510289950455574 -460 214 -14
770 1 0.33173540206114427 4.101366899514998 20.884627033571213 7.93036093900643 -460 214 -14
779 2 -0.7801207550196997 9.827101627916246 12.759034534210798 5.707332185201165 -460 214 -14
718 1 0.4270921588171519 5.867250798853031 17.097854807657004 6.251336617473638 -460 214 -14
867 1 0.3167827747593642 1.9242623101897742 16.516342714846477 5.4225123836260405 -460 214 -14
530 1 0.3817458947170069 3.4849819441833914 14.366925553827711 10.008921454959488 -460 214 -14
529 1 0.40701604848001693 2.1334030908023762 14.308225502093583 7.582812847237022 -460 214 -14
198 1 0.37345752082685824 4.2395013071604515 13.20253458666277 10.782864307900763 -460 214 -14
889 1 0.34679252788432025 10.916488788516585 18.87187895138755 10.38336283226925 -460 214 -14
458 1 0.321927632145117 1.0691004347814312 17.55106229247051 2.5835863349819204 -460 214 -14
562 2 -0.8207225272620016 9.648404629971171 21.242935723900665 3.2347901303524753 -460 214 -14
94 5 0.6849358348549546 10.44163619935432 17.864994080567985 7.864961803149113 -460 214 -14