LAMMPS data file via write_data, version 27 Oct 2021, timestep = 400000

1145 atoms
6 atom types

-0.32531607916193117 22.32531607916051 xlo xhi
-0.32531607916193117 22.32531607916051 ylo yhi
-0.32531607916193117 22.32531607916051 zlo zhi

0.0 0.0 0.0 xy xz yz

Masses

1 1.00794
2 15.9994
3 26.981538
4 28.0855
5 39.0983
6 40.078

Atoms # charge

430 2 -0.8194942747605505 5.705236568931683 10.420876130732925 1.7796825048315155 5 477 411
458 2 -0.7701254117909246 0.6832973227108828 2.106129096984057 1.3341651171207822 5 477 411
241 2 -0.8190770326687397 0.3133796501664472 5.269855087401981 1.6599662704115963 5 477 411
967 3 1.512112481511426 1.868788589557616 5.494916432561164 0.7312494083333475 5 477 411
73 5 0.755202979018607 1.7280812205376068 7.860417766447821 7.921431273422833 5 477 411
34 5 0.7451157512378718 1.5315369318727432 7.263509261210399 3.5898836113728034 5 477 411
639 1 0.40617679009964225 5.198859169009086 1.8873092146139774 2.361587279755717 5 477 411
970 2 -0.8000553589697349 2.7385111236288666 3.619010027369582 0.4989005428092885 5 477 411
661 4 1.4390573462977088 5.774844974662521 9.531920324082865 5.30238903711313 5 477 411
1134 1 0.3771074792815412 2.861859602478965 4.439705210919006 3.122085543465459 5 477 411
972 1 0.41067813309222684 1.4120368152233427 8.178716740433773 0.3333112152674091 5 477 411
56 2 -0.7868806998667663 6.150870144801016 3.015546731208988 2.13139772017748 5 477 411
438 2 -0.8222790747253534 0.8059041691248654 3.8303157611851213 8.438775082621225 5 477 411
443 1 0.40359405449774854 2.7036309961221345 4.9583861459167675 5.520231522313929 5 477 411
566 2 -0.8129942197730047 8.841424821408879 1.4533801042737837 5.350867278577829 5 477 411
35 2 -0.8282633744102214 2.157830169334548 4.182185042368931 5.575493719010378 5 477 411
262 1 0.40636973354933015 8.889882434180482 9.324438561814105 1.6021247976979391 5 477 411
14 2 -0.7707224427337976 3.4716340610635434 6.665224058386174 5.865987643404591 5 477 411
839 1 0.39674532675159 8.732956944929926 7.903808129382272 9.48904747584705 5 477 411
714 1 0.439084423735768 0.8615146115537587 2.3432232720651065 9.05641438995373 5 477 411
525 1 0.3900625557358947 9.340739338644612 7.21495688546941 5.80872713214353 5 477 411
637 2 -0.8793193336459633 4.196406901521403 0.8334447282338879 5.042326868723326 5 477 411
72 1 0.3881474923287573 2.9355964891079123 3.2739625417422604 6.691775247830244 5 477 411
520 2 -0.8321956043294898 5.306769643633001 4.83441902050767 6.932894801971426 5 477 411
30 1 0.3911343957419675 8.432766607124982 10.936029823779862 2.9265955594921724 5 477 411
1092 1 0.3556309581000918 1.9407166448269255 9.68597780665927 2.4442743735548866 5 477 411
563 2 -0.8460405843897459 8.025458735672878 1.1119863732561595 2.98211394761301 5 477 411
71 2 -0.8310712157304045 3.7165009956104105 2.7297732845232674 7.078293334170791 5 477 411
444 1 0.38682629639034777 2.0128777356710277 5.700088500068338 10.991322529022796 5 477 411
1114 3 1.5326204696708554 9.881442257365338 1.7799729923873966 9.093657476102887 5 477 411
13 5 0.683498948048183 4.603614442249014 3.9967960686541186 9.867627511953506 5 477 411
706 4 1.4855564455832624 1.6520617654025387 0.8230487440305122 10.360610912968076 5 477 411
1120 1 0.31572282071331037 10.013129992647182 -0.22182800134968797 7.409821243692092 5 477 411
442 1 0.37624675683258585 4.031135599873543 2.159432709000824 6.336381216305434 5 477 411
1131 6 1.4595671844553364 4.8436373565691335 4.613289131977435 1.165910908557624 5 477 411
698 2 -0.8780565533711362 10.125175567160795 -0.05027973189827182 10.270094724495104 5 477 411
440 2 -0.8590607237214912 1.9316852995228861 5.497413381935873 10.020728797255478 5 477 411
462 1 0.4101515869109782 1.582380429533315 2.5997297187411244 1.2727239092948162 5 477 411
1014 1 0.3418670507855788 8.571508095061866 6.319382854745916 1.635644697921241 5 477 411
1132 2 -0.7847908067974829 2.9698273119879817 5.216620905124136 2.48802689604738 5 477 411
642 1 0.4179931539909288 2.855067218145538 3.066050168413173 4.6354963082116445 5 477 411
432 1 0.4204136481127788 3.151310208682196 8.123589313749545 1.410005725477269 5 477 411
965 1 0.34511052769078004 9.28789064303167 5.0115394792092 5.684978738660528 5 477 411
75 1 0.35664994631075764 4.77068410214306 6.896919220371174 9.560107865655025 5 477 411
955 2 -0.8668400051293843 8.595496191761203 10.62680095037944 8.486513689600589 5 477 411
835 2 -0.820078101874675 8.958453875326496 7.835921641536585 8.446310153255938 5 477 411
1089 2 -0.8033208478804766 1.0470108581100588 9.70102576175048 2.9205750747329375 5 477 411
29 2 -0.7951960235019765 8.744562738034281 10.009694484154824 3.1109314971884494 5 477 411
1047 2 -0.6518498915547727 0.9921933597507138 8.79771593578923 10.072907252065006 5 477 411
564 2 -0.7723301482082968 6.81570574752983 -0.1264157751828802 4.864295001530823 5 477 411
1015 1 0.32670165078784225 5.608046738226836 7.095518224130226 1.9881489330335287 5 477 411
958 1 0.3863944813639403 8.992634588040428 9.659288875359943 8.45125138455895 5 477 411
70 5 0.7020400313575819 5.653183080629134 0.8750434040202726 8.407644255705268 5 477 411
468 1 0.4139182549653167 4.699224414382034 0.4200241121251138 0.8201867430207396 5 477 411
638 2 -0.8240804987425165 3.2223206682381598 2.7315817488795826 3.7293127503443566 5 477 411
1122 2 -0.8236393027866068 0.70572912237516 1.4454170844682732 5.633528459929783 5 477 411
669 1 0.4131470009216503 5.260974269651882 10.65435267417183 3.5615159111798906 5 477 411
662 2 -0.8656820131327682 6.171344545484084 8.381192043520862 4.277436138282867 5 477 411
969 2 -0.729838467659838 1.725536927411612 7.491297537139785 1.005316164130169 5 477 411
833 2 -0.8825171428717513 10.755643178842483 6.135383072993445 9.144181755778991 5 477 411
49 5 0.7079637245580618 6.028827976138443 9.403423060235248 9.112611260669365 5 477 411
464 2 -0.7228293773356752 4.884475376206837 0.09163893710950079 -0.09362474305834989 5 477 411
567 1 0.39819022382198893 8.649125662090595 0.7510461400508688 2.2938814357868464 5 477 411
456 2 -0.6637474884502852 1.7125833254621938 -0.1642513366158407 0.922346631808661 5 477 411
17 2 -0.7957642066320247 6.4013771616556765 6.145868778668848 9.570115905335944 5 477 411
1010 2 -0.8049625653231423 8.62424322734211 7.614741676677195 5.1207732628293865 5 477 411
834 2 -0.9211994650568781 10.719334933085541 6.9474575149842535 6.751895953736048 5 477 411
428 2 -0.8065467959048778 3.8892528227027796 8.679859302858254 1.9019796282807269 5 477 411
707 2 -0.8788062829383084 3.0662544391032935 1.4245429902492672 10.161709585503155 5 477 411
498 1 0.3495820769206761 1.5098625958722967 9.901037818718486 4.477483876948428 5 477 411
641 1 0.43473472352197107 5.158077716730912 0.5504814020166915 4.967861393618768 5 477 411
962 2 -0.8241293697120905 10.15351954018917 4.672489837358923 5.292864253972036 5 477 411
431 2 -0.8259282170835621 5.633088578277053 8.510203318797089 0.09294873572349034 5 477 411
76 5 0.6958520933645358 2.2429336072255657 -0.2722682436014736 7.232176363606713 5 478 411
1115 2 -0.7991754441154025 8.340218999792874 2.82535094391283 9.285681111108582 5 477 411
519 2 -0.8640401449151911 6.699670506260166 2.956051316073161 6.1448286291722125 5 477 411
480 1 0.39583353843583163 4.094734585347847 9.800203928017094 6.688666420311634 5 477 411
524 1 0.39475115651792364 4.721473429873809 3.9542814612236215 6.962786578306833 5 477 411
57 1 0.41312735727095656 6.905274673998587 2.480533972254368 2.3679968095309634 5 477 411
244 1 0.41039374712193655 -0.03976018163197583 2.9625443201975057 2.7784240907418583 5 477 411
570 1 0.40248907995838923 9.026807101275955 1.0400710658698746 6.344167799155298 5 477 411
36 1 0.423922371970428 4.17028757621017 6.087615700116144 6.241500605756562 5 477 411
523 1 0.40660292460664316 7.532371917893223 2.5911669592957707 5.76425056771074 5 477 411
427 4 1.4155695517993674 4.762488560796953 9.526544441676327 0.9015162770831321 5 477 411
518 2 -0.8240202488310366 7.729638033603562 4.72010574449711 7.550767326971289 5 477 411
664 2 -0.8853824515452191 6.947497130435715 10.283196246093398 5.90317101765484 5 477 411
436 4 1.524466069430161 0.6429778577772618 4.676057624100093 9.69285833590381 5 477 411
710 2 -0.8707985399449047 0.7373478861167684 1.3270034394314225 9.22603375602262 5 477 411
663 2 -0.8418730584417432 4.8370649577543325 8.986719147821583 6.39695619577834 5 477 411
1012 2 -0.7971409165138448 6.038761168116894 6.286247267273982 2.479324765917359 5 477 411
437 2 -0.8190306742465918 0.34682633327684653 3.7698605596079995 10.910580742055537 5 477 411
666 1 0.3567979541810337 5.541249782037849 8.47870644776517 3.414284889384306 5 477 411
91 5 0.7312516499470321 9.564272145896426 3.815485701747509 2.5186946385395776 5 477 411
521 2 -0.8556442971440623 7.065962748087078 5.351333850099443 5.194243111491923 5 477 411
494 2 -0.9001772224356398 1.5425682718855607 9.816449846739937 5.527900194306306 5 477 411
832 4 1.5709828755759043 10.39600259826908 7.312444040907644 8.188180591089084 5 477 411
1121 6 1.4924687340065346 0.15602678058169905 3.5725051884755685 6.121617343011499 5 477 411
665 2 -0.8137480186386677 4.938132774239545 10.574673421972706 4.494749195485837 5 477 411
668 1 0.41861976031399517 6.8121307556904105 5.704452943666548 8.785022960331068 5 477 411
15 1 0.3951441944012358 3.8717982026502833 7.5752666696482915 5.888442485798785 5 477 411
635 2 -0.8435706320143412 4.5543474984905155 0.9869827547206745 2.5056342816361408 5 477 411
517 4 1.5288240286161767 6.728057607410063 4.491839074615038 6.396238673830275 5 477 411
1011 2 -0.7985504022032847 8.648612767081698 6.26541974210859 2.6603872556746464 5 477 411
496 1 0.3829356616423812 -0.04413811464568385 9.008712015874607 5.945271590152376 5 477 411
636 2 -0.8156321826565693 2.253834394285653 0.415925733680589 3.4000130627761433 5 477 411
245 1 0.386450441175316 1.2095144757115568 1.0981271099453518 4.908202987691158 5 477 411
1116 2 -0.7742322004364525 10.820552379137641 2.699984707461814 10.717722509766338 5 477 411
837 1 0.42670281229951046 9.994715830064758 5.82943955539955 9.712884119153745 5 477 411
492 2 -0.825435092211484 3.1443098766768065 10.77656315878421 7.229541046878255 5 477 411
258 2 -0.8127210156367214 9.37984153257393 9.159110244576304 0.7035937797143867 5 477 411
74 2 -0.7845634859008485 3.9725654915877273 7.449695542548337 9.717871976860819 5 477 411
51 1 0.3714922089640022 3.2751697161040036 6.8237515480395965 10.002602823307777 5 477 411
562 4 1.431051813402898 8.201802087417105 0.4197244135780381 4.376436375918283 5 477 411
634 4 1.4798567038739263 3.560497030276395 1.216886517985462 3.665687922211788 5 477 411
1009 3 1.4604466371513758 7.294934408057202 6.550984214188803 3.9108252065909634 5 477 411
18 1 0.38836044588346175 7.123718068982353 6.650281953318305 9.997490703201958 5 477 411
522 1 0.3800951729757718 7.962189870897063 3.829758419035384 8.08845686597436 5 477 411
838 1 0.3583807290812631 7.998344293546241 9.58741577916969 3.5562479745927074 5 477 411
305 2 -0.9145717320759839 8.127178871488796 7.983376939458322 10.931999753929697 5 477 411
640 1 0.43350899144406346 2.0283318200724283 0.3678479771482853 2.325548685520002 5 477 411
1117 2 -0.7990523344598092 9.345230343325934 0.4817778348092438 7.770995522066983 5 477 411
1013 1 0.358559616760822 8.19191309932131 8.406213367541614 5.6085326634279395 5 477 411
1118 1 0.35874456564647317 8.193260431135574 3.545826951060127 10.01425803563822 5 477 411
207 1 0.3574158271112776 10.1816121556143 3.699078362101938 5.587630643233018 5 477 411
256 4 1.4080695049037524 9.965888389725977 10.500088447636362 0.14766478401030766 5 477 411
677 1 0.4109568324640526 10.241666470949635 7.614874563278569 0.15663329434228482 5 477 411
454 4 1.1649185865712082 0.4450642060529177 1.2003912185111332 0.0163956260067747 5 477 411
41 2 -0.7804029597463829 8.716201889777423 4.226339574891391 -0.22344159386690862 5 477 411
968 2 -0.7318551695340924 3.5100171404715232 5.997118388622575 0.023912324392443465 5 477 411
429 2 -0.8242616892095828 3.7857964403361133 10.389165015567345 0.020114956884947424 5 477 411
40 5 0.7268042335601085 10.79468934415822 7.806554414245018 3.041433187038577 5 477 411
673 2 -0.8464087216153957 10.90065338703548 6.872453248321971 0.15670469161314146 5 477 411
363 1 0.4209394398385019 7.083170164018734 7.4014093521618385 -0.27643581093317593 5 477 411
1001 1 0.29898409806593834 10.279352251067689 0.9943973073222512 18.218627931901356 5 477 410
342 1 0.4111271164787782 6.8728235735147445 0.7844647992796094 16.60821910893461 5 477 410
873 1 0.3913336393376651 9.710974679444174 10.932354944623098 15.089407557884298 5 477 410
341 2 -0.8391248980118327 6.664555652017609 1.5736953607371365 13.773318480588921 5 477 410
301 4 1.4760084246601526 8.665005360785072 8.998238572885066 11.921986537306795 5 477 411
213 2 -0.8331383136045464 2.4156851748732935 6.37258287319232 12.674255837771529 5 477 410
298 1 0.41272555333133865 -0.20676430414808544 7.569807804055602 14.008623853996527 5 477 410
358 2 -0.8384671668927395 5.8803567776029 7.665035677721218 20.124644909037862 5 477 410
344 1 0.4394990004296941 4.2246950103519945 3.2209132139938266 12.70238438745551 5 477 410
1045 2 -0.9532655640367815 -0.24927522771016436 10.423395044650842 12.071409441275787 5 477 411
331 2 -0.8577456529267654 7.907073939395333 3.4969583560631556 12.224123899386628 5 477 411
360 1 0.39358277468262326 7.696042414660117 5.313288010465055 18.864986043205068 5 477 410
645 2 -0.7683214905236123 2.991809493685561 4.087622446872369 17.754423390997967 5 477 410
61 5 0.7094758918602672 4.961409674685044 8.20556835473295 12.306951682839918 5 477 411
1046 2 -0.8018258110175449 2.921087939735378 9.860378151830115 12.216815734752936 5 477 411
217 1 0.4144617159960866 1.4921754206998938 6.605238122109013 12.983140334945555 5 477 410
340 2 -0.8877411590046413 4.599500925556556 2.3664647988876046 12.413718687183811 5 477 410
543 1 0.4079627322507552 -0.066424201481317 9.11627039326446 18.156602837426025 5 477 410
856 2 -0.8253938245709417 1.8888724128580827 6.47282062339994 17.790961961951158 5 477 410
302 2 -0.9025549254144141 8.096636004856443 10.402214395569086 11.725632305921113 5 477 411
709 2 -0.7931172905986739 1.1439114635926535 1.2544821757508475 11.757285969914234 5 477 411
648 1 0.3998824064849407 4.590502033012685 3.6262579183422785 20.813564144492553 5 477 410
982 2 -0.7285219360814904 4.497619269477441 0.835162016566374 19.862552089375516 5 477 410
294 2 -0.7947008272285311 -0.24580057594220664 6.7153200633225065 13.375256932604579 5 477 410
211 4 1.4657576644854877 3.0928079284637784 5.277442213385084 13.576115094068689 5 477 410
1034 1 0.4174936689146556 0.6368974363928981 8.59889266894609 15.670985105740048 5 477 410
214 2 -0.8676775804437827 4.536735641338583 5.04427302540958 13.020816044054113 5 477 410
215 2 -0.8568678653799275 2.2893811923512435 3.958031425063763 13.411472326067699 5 477 410
95 2 -0.7718875896787829 0.543768296842188 2.8484118102579337 19.239923397252163 5 477 410
855 3 1.458349762389632 3.4062878730358643 5.8229630206576175 16.802837588642856 5 477 410
138 1 0.3411814379704339 6.531149817714706 -0.08050098563487793 19.48302571746684 5 477 410
357 2 -0.8561555966504071 8.371547562000575 7.719205649794634 19.544226019499494 5 477 410
647 2 -0.8161588120838287 2.7927926853066585 1.641373962575898 18.379119374719526 5 477 410
762 2 -0.8263390447831067 8.506795725134571 4.853371105966902 17.314999537075614 5 477 410
134 2 -0.75738123200669 7.281164772203754 -0.15342743234729622 18.80061202252691 5 477 410
461 1 0.39969159157011575 1.4694113848084172 0.6324760703009424 20.77409039898084 5 477 410
339 2 -0.8186488709390815 6.539737861777304 1.3456751016831145 11.25391994573484 5 477 410
433 1 0.3709589510191036 4.179521619004821 10.660426688688526 21.802076503552062 5 477 410
337 4 1.5915837650369118 5.694125262196075 1.3323214917335302 12.581860363803003 5 477 410
441 1 0.4050085671283589 -0.1545020101021987 4.224715106934628 11.692980981646675 5 477 411
713 1 0.44757334187040193 0.7658524422367718 2.156990570332526 11.713814498577765 5 477 411
254 1 0.4137736802793292 -0.11649857940834729 6.101653753270091 21.147508049815926 5 477 410
27 1 0.4170455870816731 6.896536919187468 2.5907236932827664 17.49214523349762 5 477 410
362 1 0.3523116618622103 5.879939205400642 8.3546924525544 19.4174586399144 5 477 410
137 1 0.3969305365375318 1.5581758086279074 -0.2152299920234388 16.730422299685976 5 477 410
650 1 0.3931593157369806 7.235375025466759 3.1622650641664203 19.74167103113816 5 477 410
356 2 -0.8769537487450004 7.136843835831284 5.483351075849214 19.67691523347548 5 477 410
533 1 0.38736512918049754 -0.234502414366767 3.298109875167373 14.718687831057073 5 477 410
9 1 0.37678727298657383 0.6704734351799523 4.239999978059715 21.288018058803384 5 477 410
93 1 0.3921584954039378 7.737935298925584 1.749537602495777 19.679364429813994 5 477 410
997 2 -0.8220287110424833 9.715164943471352 -0.2646170731403501 20.89208495308997 5 477 410
1049 1 0.3242018705510898 3.035155649072776 9.743457545187233 13.227211868930885 5 477 411
457 2 -0.7359350651112363 1.3485129696375586 1.501662787819448 21.398946226941554 5 477 410
293 2 -0.7337398525793676 3.0013809053250204 1.9956735959408474 15.38458853104472 5 477 410
643 4 1.2332791062934207 3.933870336005475 2.6326720724155876 18.931443545108223 5 477 410
531 1 0.4030553778895446 1.4784766337765487 1.398995640148473 15.383335244254104 5 477 410
1051 3 1.4498638760315208 10.537768760567147 8.141389818285328 16.753878141248858 5 477 410
857 2 -0.6935681385095703 3.9025543774573266 7.756559926935197 16.89361746509053 5 477 410
860 1 0.34150568177301555 3.4898046609288453 8.356722675345122 17.610386220966564 5 477 410
763 2 -0.9039057703821051 9.330317530494867 3.5688070126742955 15.322979613425336 5 477 410
184 4 1.5841586349199746 9.174404552165806 10.908539342870975 17.758737119969002 5 477 410
973 1 0.4007702539041292 2.7761817347268734 3.17400737007547 22.2573748388309 5 477 410
212 2 -0.8498056033794544 3.1386156905753317 5.5775173535249785 15.058727286147471 5 477 410
345 1 0.4201380903058224 6.469760331425947 1.0404699095085133 14.5856569552734 5 477 410
355 4 1.4486283979046903 7.265925946061441 6.9189074760449625 20.273284503052142 5 477 410
859 1 0.33433699471542433 1.5545226123914284 7.441920050679003 17.881698331010398 5 477 410
335 1 0.4017159052599311 7.610909010214012 3.060648179339339 13.076460703241468 5 477 411
910 1 0.4009937852738226 9.745942833872897 10.159372898630835 13.759501751786898 5 477 410
527 2 -0.8281903353695002 0.6502973683506263 0.7820756300739145 15.443915849018051 5 477 410
586 1 0.4169770442094542 6.852146723831782 8.67166116689189 14.726518198752009 5 477 410
537 2 -0.8132445430595173 2.710757436737792 10.86463585408397 17.205952337566366 5 477 410
300 1 0.40180534007441254 -0.15307206124969525 2.365258894143156 18.738464084588937 5 477 410
1135 1 0.3996601420709551 6.277457050910513 4.560979043878777 21.125452951051027 5 477 410
361 1 0.37681847954968195 9.179048362920748 7.235683595811666 19.157755159211835 5 477 410
971 1 0.4031316383645838 8.410388278699491 5.127816553011445 22.202913720832917 5 477 410
649 1 0.3330908020473742 2.0398937193056703 3.922940594662982 18.075799294723446 5 477 410
253 1 0.4115286609030203 1.2153349243635536 8.992428542964333 20.53945085247994 5 477 410
535 4 1.4452187020410674 1.717965866356206 10.315679056968278 18.29731419120014 5 477 410
55 5 0.7265665958996674 2.8536348394065425 6.42726490573392 20.278389051730155 5 477 410
542 1 0.3762510404902594 3.299043826807738 10.063056694936186 19.751642864157134 5 477 410
985 1 0.41406093000721833 4.400154378642403 1.016024964302546 20.854173679291893 5 477 410
187 2 -0.8496791182140676 7.939203882962383 10.329824234547305 18.50772398264574 5 477 410
858 2 -0.796801239118464 5.251137064419573 5.404662673402436 17.30631835608665 5 477 410
767 1 0.403912224349515 9.452827421054666 3.1305425511360903 19.31886683066803 5 477 410
25 5 0.7149249175796109 9.285810710813431 0.6093167116283438 15.101101827593267 5 477 410
760 4 1.4817215764635598 8.143499850053153 3.798753700480659 16.236544528081954 5 477 410
583 2 -0.8115252782283061 4.0911646710461085 9.76693986306625 15.072924671145792 5 477 410
219 1 0.4179240427177537 1.3131338732253919 4.0633896432576275 13.25827219597504 5 477 410
359 2 -0.7898351776151527 7.590192833106532 6.760365425348146 21.812838457176202 5 477 410
26 2 -0.7918055783879107 6.5846947448017135 -0.048553206158810924 16.152573661866995 5 477 410
343 1 0.41519569801860645 7.224053153344802 2.052306865196543 11.223910415013963 5 477 410
538 2 -0.8867206245020942 2.5704379147839593 9.522716102464464 19.352674764688793 5 477 410
328 4 1.4588919584536155 8.760122517741232 4.77741803552181 12.4338152031932 5 477 411
623 1 0.4042210693858829 2.8700287419944726 2.741067111895937 14.768039488293855 5 477 411
1030 3 1.3506542829098607 0.18232796726111947 10.546175240746907 13.932497625934468 5 477 410
539 2 -0.8345693160249227 0.7676227935278804 9.240578977852707 17.645623955012375 5 477 410
191 1 0.40728813007744574 8.133429312724344 9.44580212965713 18.933913644400565 5 477 410
259 2 -0.7512123882676836 10.437230869212199 10.42042519470028 21.30393450431737 5 477 410
297 1 0.3848881276424689 3.0452109712845505 2.412245517985408 16.26315656848618 5 477 410
768 1 0.42063776856474133 6.245185382094994 4.886642967240962 16.184162113952844 5 477 410
651 1 0.4154792825022024 1.8161110371766345 1.9612272282513545 18.770082656096008 5 477 410
644 2 -0.7655428606525713 3.691439207893313 3.386238987881247 20.311146724937945 5 477 410
96 1 0.42971313392788696 0.493790372045955 2.4871613661371375 20.16934434519073 5 477 410
1053 2 -0.7982002915839133 10.74788057057951 7.056287616570265 18.27632575532498 5 477 410
42 1 0.38698726792202354 8.25648362026637 3.661693892734293 21.790892388394912 5 477 410
1031 2 -0.7403808833113749 0.5542526872863827 8.841635555708505 14.67431673477743 5 477 410
761 2 -0.8328917117083233 7.687023184101608 2.4590458735581233 16.903072533328206 5 477 410
8 2 -0.7651431870935154 0.992475899571127 5.115820157023361 21.608848953796716 5 477 410
584 2 -0.6930652691783595 6.455583646905036 10.632413363503924 15.413372474604738 5 477 410
1052 2 -0.7586894773543164 9.15942128616715 7.105280762057022 16.04481918357271 5 477 410
541 1 0.3640627236111372 3.6586603778250666 10.757234227302904 17.479896397413288 5 477 410
861 1 0.33222545544652765 5.819285595188167 5.866411607102774 17.990075079591982 5 477 410
1133 2 -0.7370673694205729 5.730733010691428 4.134756248442666 21.77293800058258 5 477 410
585 1 0.3956841415618544 6.361155248977711 9.998219247585599 17.564944043998985 5 477 410
249 2 -0.8659828958049862 0.724703291472282 8.511857177186842 21.24390474311683 5 477 410
92 2 -0.7355317291386367 7.934492316232844 2.6004450997358854 20.093149462446465 5 477 410
188 2 -0.9133234291385705 9.918579077179174 9.709764305997913 17.25004816961905 5 477 410
582 2 -0.7703637611647466 6.222409883334646 8.135765882289396 15.246818268911003 5 477 410
587 1 0.39832479793730274 3.388281923240223 10.106187747792088 15.65219961361929 5 477 410
998 2 -0.8567628607505303 10.232629700834192 -0.05503340770839502 18.09728644350114 5 477 410
764 2 -0.8160146270065782 6.898605919127209 4.385464322851373 15.497709572797257 5 477 410
263 1 0.42353688230179737 10.640698064760084 9.512555754715489 20.973085227216913 5 477 410
765 1 0.38231555010304535 5.375670249794999 3.9508689766163068 17.917592266702666 5 477 410
581 2 -0.8033610257572941 5.43966394297937 9.672416084092747 17.487843497042196 5 477 410
218 1 0.37566462405700424 5.213875666476525 4.949312135839055 13.726660055608184 5 477 410
580 4 1.2440353901258214 5.2226201425079655 9.122372837565736 15.995132753545741 5 477 410
435 1 0.3953935387171007 5.4566373511418345 8.45111294232323 21.759813865087168 5 477 410
646 2 -0.775090572732708 5.36938160756288 2.9534133787110406 18.335690186174812 5 477 410
552 1 0.37933195314071827 5.321898987427726 10.606063395779689 19.326792029833026 5 477 410
304 2 -0.8412944165996384 8.217549726138117 8.615733423639764 13.369230013451656 5 477 411
308 1 0.4069118166882105 8.15420812790921 7.640519955555404 13.461977482828148 5 477 411
332 2 -0.8270115329770357 8.005669220514203 5.78964872739661 13.359586089292538 5 477 411
336 1 0.4153632923536508 7.662253628143036 5.349289940189174 14.183380966151507 5 477 411
1055 1 0.3770134978204463 8.256227075921235 7.3721798756282615 15.667058592187136 5 477 410
766 1 0.4060594055276625 8.83736358312287 5.7629407159376695 16.85061762376157 5 477 410
329 2 -0.9057794193240042 10.123905287413358 4.349020750960291 12.929339428540192 5 477 411
907 2 -0.7431009094423839 10.169147180628148 10.887754203442121 14.227966941669766 5 477 410
307 1 0.38046437964701757 10.586039027628575 8.077709911129563 12.08966559198948 5 477 411
303 2 -0.8623753753494963 10.220075348740679 9.003919811227714 11.914299529326003 5 477 411
866 1 0.404346718173634 10.422080375195733 1.3381899471874221 12.634393352308127 5 477 410
86 2 -0.7406371697577309 10.381883182952915 2.9371653267368276 19.039320889572902 5 477 410
338 2 -0.8832653679578043 5.062807752185076 -0.06943492106394282 12.716483270150464 5 477 410
309 1 0.40419912092074545 8.584023254995877 6.590460708874632 11.175551455599829 5 477 411
1119 1 0.360174991046579 10.352264885684423 3.301297578506722 11.424891512587925 5 477 411
1044 3 1.402346151536358 1.418434247292396 10.143567908711963 11.15462561259017 5 477 411
63 1 0.3937960523287986 10.957296885416751 5.709428616935665 12.616379345860903 5 477 411
862 3 1.4994943948643424 10.853526265764332 3.3125134232815596 14.385383961490376 5 477 410
863 2 -0.788271663339845 10.961374735836017 1.6789234038985335 13.412834188850004 5 477 410
87 1 0.40054310930238646 10.876039284821266 3.7760967810208643 19.022142535904656 5 477 410
1000 1 0.37639968135007745 9.091844767295093 -0.31719164174838355 21.709325252055393 5 477 410
711 1 0.3765925702067324 3.4514465782356925 1.652425420240802 11.031983447598636 5 477 411
330 2 -0.7993428801000667 8.91559874602262 5.506613260655944 11.069853754298832 5 477 411
112 5 0.7246702672267445 2.0802409520012377 18.45358708246368 0.9171377284718877 5 477 411
1113 1 0.3392312789852503 9.245770542383754 20.052285941255242 5.5571256773028725 5 477 411
946 3 1.5192350414340647 6.575388136806041 20.42578537643071 10.12094275232595 5 477 411
896 1 0.3819514100660222 6.130714428796639 17.782727769452276 1.3413092446849844 5 477 411
591 2 -0.7433639463417977 8.671021626791454 15.73940882874396 0.4620840788465406 5 477 411
953 3 1.5323538443736242 7.992447087803343 11.53279534538996 6.668520464331953 5 477 411
68 2 -0.7700763796875371 -0.21780050994514186 16.94094507115975 1.7775745259660005 5 477 411
166 4 1.4411559935349068 1.9027926750641584 13.267615578931654 1.5962336463417606 5 477 411
667 1 0.40549941452604116 5.249224539014627 13.774360435921873 5.3427133437127 5 477 411
560 1 0.40087569403210677 1.3890972408291133 21.346328462055084 3.2483305034946945 5 477 411
167 2 -0.7937714219936882 1.1223413393049475 14.594455618464435 1.5435245654021101 5 477 411
881 1 0.3538423484680559 5.561823103628234 15.005356007529828 0.7915760345975036 5 477 411
556 2 -0.8781532182843124 1.065238644176425 20.428176108760415 3.2346082741524906 5 477 411
476 2 -0.8998481771669504 4.897822725161136 14.192654880404481 6.174915117257062 5 477 411
169 2 -0.8017657264047172 3.370769066616282 13.616583171037846 1.9878664714286882 5 477 411
479 1 0.38637707880322725 8.71579448996907 13.270588426422105 9.866950701333238 5 477 411
78 1 0.36764693979983903 6.6109025322011865 18.11235604511435 8.687905694087823 5 477 411
460 1 0.3245071458460584 1.129188533706434 21.779170736733715 1.1448777412602067 5 476 411
957 1 0.34381830238872396 10.618057461365158 11.576220118602752 6.995032251680687 5 477 411
472 4 1.4887723845865097 5.495079049460781 13.551350541685048 7.453998090022926 5 477 411
491 2 -0.8010571127984384 2.6243598927590015 12.03834292095341 5.05274265698096 5 477 411
52 5 0.7137019644650411 9.312616135015576 19.851503230278702 8.326291663198933 5 477 411
558 1 0.37466674748476414 1.9941777997622143 17.587025666373215 4.832426374051081 5 477 411
395 2 -0.8850532709281652 2.5521962885863725 15.849176309150815 6.169933540748646 5 477 411
398 1 0.39965368969660864 3.941469745479195 11.952909297821135 7.609012113514884 5 477 411
1112 1 0.4023663943794316 7.494576998033191 15.85669290763049 7.459806168104244 5 477 411
952 1 0.3659477450662766 4.06636469907628 21.35993662037397 10.102851763580173 5 477 411
392 2 -0.9239434826345903 0.18654690544621558 15.616515298334262 7.249757940155306 5 477 411
397 1 0.4154248862239708 1.0481202472762416 17.044124395625342 8.875621123240101 5 477 411
495 1 0.43424186867800146 3.5347022315958974 11.78506932625867 4.7571853963785244 5 477 411
1077 1 0.3642074148573736 0.050284385700563254 20.54344213560171 6.553115854453758 5 476 411
471 1 0.38222794139543975 7.759122096129997 21.906424746329456 0.6032099514617509 5 476 411
719 2 -0.8224890447402718 9.59637487920526 14.312716238595666 8.573578990541781 5 477 411
393 2 -0.805868896760339 1.9150535869329637 16.723288535958677 8.477923347562653 5 477 411
47 2 -0.7077057622093603 1.6038644317199744 11.578888050368436 9.972800717442734 5 477 411
173 1 0.39108347398421267 3.8163859348575295 14.294159929963357 1.252223987893714 5 477 411
1069 1 0.3739411880781647 7.195998009361999 13.17273939038202 9.232388538731076 5 477 411
172 1 0.41090097330471526 2.604778976436745 11.82163122201079 0.1413767579498061 5 477 411
488 1 0.43470235591981277 2.7045777788349725 18.4898679490486 8.709735279584793 5 477 411
418 4 1.396613759991712 10.834756012703023 18.944346129321197 0.8374807758422461 5 477 411
596 1 0.42694871871466344 7.313898915336015 12.586945339606036 0.7252859281588381 5 477 411