LAMMPS data file via write_data, version 27 Oct 2021, timestep = 20000

1145 atoms
6 atom types

-0.2678325121690141 22.2678325121656 xlo xhi
-0.30843318046369816 22.308433180460188 ylo yhi
-0.3101989127412548 22.310198912737697 zlo zhi

Masses

1 1.00794
2 15.9994
3 26.981538
4 28.0855
5 39.0983
6 40.078

Atoms # charge

204 2 -0.8817023297699582 9.514908787846652 5.426583177514466 7.743624117745698 5 477 411
471 1 0.38717944172181107 5.108975613411803 0.576338458879486 1.70454121728572 5 477 411
221 2 -0.7460523234185684 6.827571156754198 0.6829774950385026 2.533448703147883 5 477 411
415 1 0.4305443842960029 9.602161819606739 6.4097675609216305 10.494241728555238 4 477 411
210 1 0.4357333194128446 10.213803385194424 3.4778135822847496 6.253219353085633 5 477 411
823 4 1.447203054963451 9.990310048119055 10.435728587943954 10.043149564253207 4 477 411
639 1 0.4068009567190536 2.5349274045569756 3.1657299204699103 3.47494395284909 5 477 411
970 2 -0.8019196763218605 0.0629939907047185 4.887082058329819 1.6156743348543126 5 477 411
661 4 1.4383110214262986 3.0907536634478783 10.805671746495818 6.414080771365111 5 477 411
1134 1 0.3768136829446576 0.1869394282505536 5.713648803136264 4.227741618532377 5 477 411
568 1 0.4168404175121158 3.901518681448816 0.17496569821009617 5.5743962371726425 5 477 411
56 2 -0.7903253592581889 3.472631216908896 4.303555336019843 3.2438057887442735 5 477 411
565 2 -0.8701433277810204 6.4501805635249045 0.44973940991063266 5.323653391615987 5 477 411
443 1 0.40541611757866886 0.04639310191707158 6.241670766355573 6.598922037793638 5 477 411
566 2 -0.8150855986676644 6.160251419671477 2.7315272289549966 6.4471457540963435 5 477 411
282 1 0.38402640420700435 10.533439389206068 9.48342848506525 2.099672442136412 4 477 411
262 1 0.40646847359895916 6.177299409811545 10.584225943867105 2.699587513939213 5 477 411
14 2 -0.772278852315045 0.8031538155169036 7.941895581523983 6.938111237330338 5 477 411
839 1 0.3959392472642477 6.036090204083243 9.184356512975448 10.575038286561368 5 477 411
726 2 -0.841776521698003 8.745731213996379 0.409587634404864 7.0331879424902235 5 477 411
525 1 0.38945345108524093 6.637560012013418 8.496096341326249 6.912199749445649 5 477 411
637 2 -0.8802229571916484 1.5233608242739887 2.1214939398223422 6.164223580691813 5 477 411
72 1 0.3874547257904255 0.24811356790262834 4.570264596528737 7.805503088971593 5 477 411
520 2 -0.8320979379797553 2.6248918869211963 6.114806046096253 8.03219786849525 5 477 411
673 2 -0.8455832774641159 8.17318543635261 8.118557559157175 1.263630275777688 5 477 411
966 1 0.3595293951400348 9.645910503518088 6.659116880022629 4.399057339672566 5 477 411
563 2 -0.8474810853595445 5.328689847269351 2.3817869921646158 4.085586347255452 5 477 411
71 2 -0.8298795511304139 1.0240612821627824 4.022044153054927 8.193906720009798 5 477 411
363 1 0.42108112844734685 4.410831247450754 8.677898872648345 0.8483616333306161 5 477 411
1114 3 1.532691622231718 7.173791752081582 3.0658177285304338 10.197641316025564 5 477 411
13 5 0.6847540185340966 1.9368673580160833 5.283512834520649 10.969931254586683 5 477 411
947 2 -0.7270637343124524 4.5666951630292 0.07993114696607428 9.626007621911873 5 478 411
1120 1 0.316622983517563 7.323343349508896 1.0618572209815513 8.5177049271918 5 477 411
442 1 0.3750804792678516 1.3370576760487298 3.450281021727132 7.452673477292631 5 477 411
1131 6 1.4649748996556873 2.1650050612313287 5.884013247826817 2.2735744016448955 5 477 411
732 1 0.3981067622613054 10.085266986786113 0.3348878190729371 10.025912659566238 5 477 411
225 1 0.35995877663341763 6.695909065443676 0.4046732921193289 3.4440931941210953 5 477 411
670 4 1.3975517495641983 9.14156994180086 8.127681871373948 0.028414969219541564 5 477 411
1014 1 0.3448443350067583 5.851476040290435 7.582790928688859 2.717986479575084 5 477 411
1132 2 -0.7844120156947456 0.29295062047438 6.49007387349409 3.5927329352718655 5 477 411
642 1 0.4187669815049531 0.19272543268589493 4.348278424247146 5.736691730199388 5 477 411
432 1 0.4205069543815825 0.4873104582731001 9.38664396643806 2.52546456631697 5 477 411
965 1 0.3472685993173987 6.568587880012925 6.2813782756218 6.805091031869877 5 477 411
75 1 0.3587441415433465 2.0996058651894147 8.203779391656877 10.632913755135585 5 477 411
844 2 -0.7722623382462844 9.120764314210662 10.444257081009024 6.596774197649402 5 477 411
835 2 -0.8232306004069887 6.261935268400627 9.11864872841597 9.53603259287737 5 477 411
42 1 0.38920656771279716 5.537182559130212 4.9223932262085865 0.27345688568583204 5 477 411
659 1 0.42736576817010985 10.326280061652142 6.012829906261013 2.4774145874624134 4 477 411
359 2 -0.792262350317323 4.908289222630413 8.027727889282511 0.28879325225478447 5 477 411
564 2 -0.7724270773605022 4.13551216794947 1.1493781095999855 5.98505933914681 5 477 411
1015 1 0.32864260676081236 2.9011080087672756 8.37333762187552 3.0891560548516512 5 477 411
958 1 0.3852582487083123 6.340529409210576 10.944781464994636 9.568623180960945 5 477 411
70 5 0.7030958578074296 2.981049185986941 2.170934357974506 9.487957504347355 5 477 411
468 1 0.41353270363854594 2.043414061412351 1.7103980758610624 1.9387144445837632 5 477 411
638 2 -0.8246579553654253 0.5535988467823056 4.00616592308272 4.828917615030183 5 477 411
226 1 0.38509695390679044 9.269179146197652 3.4290391518632513 2.978678905908448 5 477 411
730 1 0.4212807224857375 8.968120228690779 1.370116150042267 6.894139479076892 5 477 411
662 2 -0.8652304927021178 3.4706446614184383 9.653791674404811 5.3839591306847465 5 477 411
206 2 -0.8329560040825272 9.677974310829057 3.097319634931796 6.998799612232641 5 477 411
833 2 -0.8822874501092807 8.039003923524094 7.407257156899912 10.226082625871618 5 477 411
49 5 0.7088598711608125 3.3753454423468607 10.700271232138382 10.20232160582063 5 477 411
464 2 -0.7214162485365774 2.2298821705594207 1.3910213497417216 1.0209486044272236 5 477 411
567 1 0.39757194590749123 5.9738916688120165 2.0489097693835543 3.403242277594937 5 477 411
463 4 1.1869109997393423 3.1200623602568096 0.07417704779879569 1.093548667425397 5 477 411
17 2 -0.7961799065337833 3.7152048509388926 7.430474891825492 10.64062012138787 5 477 411
1010 2 -0.8056023854137689 5.9181098974484785 8.893130954291843 6.22221340147365 5 477 411
834 2 -0.9242333937643312 8.0171356831959 8.222384019402927 7.835871176700911 5 477 411
428 2 -0.8092081910553366 1.2236737865195408 9.94503607480136 3.019408049897512 5 477 411
672 2 -0.834307052206538 10.57427738720801 8.33502257670912 0.6292672396596685 5 477 411
1000 1 0.37629723110654845 6.42144989959195 0.9952112009953227 0.16577200118031055 5 477 411
641 1 0.4348776236870887 2.4856284259971853 1.8371608783937794 6.098959830576021 5 477 411
962 2 -0.8254455016404234 7.430547468227454 5.9366085892609215 6.407237359073761 5 477 411
431 2 -0.8270285801482996 2.9623325977047843 9.793044481283514 1.2034620144298083 5 477 411
435 1 0.39610453176884947 2.7780641804363095 9.727069241563335 0.2212135298040746 5 477 411
1115 2 -0.8023807327600638 5.628022012057943 4.108241833439085 10.381715490016768 5 477 411
519 2 -0.866056950369173 4.009685856146454 4.229294467469631 7.238790943091025 5 477 411
1080 2 -0.8261345331962864 10.813214478554926 3.315985797686721 -0.17200543513580524 4 477 411
524 1 0.39362354447458436 2.0353069444660017 5.2369344259678385 8.068715715092765 5 477 411
57 1 0.4118624508155156 4.22840084781189 3.769740628563091 3.4723867995507707 5 477 411
836 2 -0.9219266487648451 8.607684754929105 9.780397838833272 9.6840426332152 5 477 411
570 1 0.40267490587830296 6.3433684519550795 2.323003994966596 7.44197175201519 5 477 411
36 1 0.42403932319392224 1.5001489901203047 7.36674143390136 7.320447209844331 5 477 411
523 1 0.40468333010175817 4.842921053592092 3.8608085027887684 6.861484742483155 5 477 411
427 4 1.4159457693349584 2.0921131012685743 10.79970274408234 2.02244607203605 5 477 411
518 2 -0.8246711703346523 5.049134369437189 5.9987812619555365 8.630641299510229 5 477 411
963 2 -0.8045786417578645 9.670926237891427 7.309712158750928 5.183199068459469 5 477 411
960 3 1.5043075798467422 9.205252142407693 7.009347871332147 7.00110529726633 5 477 411
569 1 0.4231250063004454 7.336599008553591 0.5534527935768924 5.76551466232 5 477 411
663 2 -0.8422195120670138 2.158090934727101 10.257797866067348 7.511162961614956 5 477 411
1012 2 -0.7983886489244202 3.3423041768845607 7.564983600431966 3.5744869986810275 5 477 411
847 1 0.3798612120310207 8.551803760942715 9.815136769374043 7.12415810782523 5 477 411
666 1 0.3596091743587825 2.837912700659693 9.759583765546402 4.523883689993548 5 477 411
91 5 0.7316982279699757 6.839038101219854 5.093140830280786 3.6486276020073083 5 477 411
521 2 -0.8584761614918522 4.368447571627973 6.623384254963736 6.278430657115981 5 477 411
100 5 0.714723424167011 8.344541457027507 4.025325815570567 0.19981359299855983 5 477 411
832 4 1.5784422566223721 7.6942307287977325 8.587662347210644 9.270799189151312 5 477 411
950 1 0.3476999637241216 5.304786084691447 0.7855037614587084 9.510032152457761 5 478 411
224 2 -0.8577443500900401 9.203928942046412 1.0027320500270764 1.2025851462959378 5 477 411
668 1 0.41849030549134264 4.118230120686067 6.990882812110217 9.850477354502175 5 477 411
15 1 0.395273574235683 1.2006245690343293 8.852508981589818 6.9621172578741986 5 477 411
635 2 -0.8418016576511859 1.898189844883397 2.2588198069711702 3.625433360553012 5 477 411
517 4 1.530085019834378 4.039623618495824 5.7658617764327635 7.483489780769202 5 477 411
1011 2 -0.7998426417074902 5.943180389612084 7.548641341297136 3.7433019897182147 5 477 411
973 1 0.40165097501736075 0.09115739368888925 4.431913283729293 0.7275931956738013 5 477 411
101 2 -0.7889909863735278 9.36962832582967 5.82992399658157 2.490392083219662 5 477 411
1133 2 -0.7398449458378773 3.041861239998155 5.391953168973421 0.23785217217232912 5 477 411
102 1 0.3760835454561718 8.961541647611126 6.549824893158918 1.9741262633995342 5 477 411
837 1 0.4288151074669322 7.279209624367767 7.11771478426018 10.807363046429689 5 477 411
220 4 1.1764687758549541 8.729581690167873 1.392825598648287 2.6031844262203094 5 477 411
258 2 -0.8129721662314853 6.675936172855412 10.418045087346101 1.8032965495928104 5 477 411
74 2 -0.7808528799816191 1.310580182669476 8.765113968461698 10.809734589692207 5 477 411
469 1 0.33487041656827854 0.7697909287173352 -0.16001040239941253 2.0103784873437913 5 477 411
562 4 1.4328512353808127 5.5154079774404625 1.6940591041811537 5.480121753500962 5 477 411
634 4 1.4808257974503998 0.8980043589621594 2.492929770626979 4.779590281844725 5 477 411
1009 3 1.4625819097662602 4.598971382321582 7.8303433114882335 5.004378771460859 5 477 411
892 2 -0.8099868377467228 3.638241797563506 -0.21309888446018538 3.045969898186983 5 478 411
522 1 0.3793903856764044 5.266945279307747 5.112042399238481 9.182126546222415 5 477 411
838 1 0.358029657350768 5.266049704981353 10.879138056017942 4.628573502456281 5 477 411
203 2 -0.8702483651641904 8.46670720468018 3.6736373974146996 9.129978136377131 5 477 411
278 2 -0.9253354455474226 10.580620058803236 10.122953706127651 2.855717284268245 4 477 411
1117 2 -0.8001460287313826 6.649439575632295 1.7626424840819541 8.87152623618005 5 477 411
1013 1 0.36020918355773435 5.487970407786496 9.688326909816459 6.706562234538224 5 477 411
610 2 -0.8935979188367659 10.750608210499475 2.292090987410494 2.661802569939424 4 477 411
207 1 0.35795080059610607 7.456723339087741 4.964403843608204 6.707385934967291 5 477 411
227 1 0.4135754940313739 9.947629304091153 0.799389309351404 4.316540254040316 5 477 411
677 1 0.4132651032518141 7.5155142163473485 8.861334034640313 1.266124068244905 5 477 411
467 2 -0.6874323630570855 4.5853072115589715 0.697575621089572 0.887426669532265 5 477 411
41 2 -0.7810174107786555 6.00645702976778 5.484380706660057 0.9060448768773812 5 477 411
968 2 -0.7329218793974923 0.8401907916199929 7.277145970164139 1.1333902584229663 5 477 411
202 4 1.5867976119988605 9.648548349194602 4.021286879620192 8.251345712207302 5 477 411
40 5 0.7279573381008044 8.087100778625196 9.08081667334136 4.153664612711609 5 477 411
728 2 -0.9057281900137105 9.422388675085683 -0.14256296389946027 9.439934112414056 5 477 411
222 2 -0.8346506278082482 8.416298586972127 2.914412038197511 2.9138694027697856 5 477 411
971 1 0.40221706553825204 5.716974553109417 6.3894458419223294 0.6750469539528138 5 477 411
895 1 0.35358622735095363 3.6292880559520526 0.7286825395443921 3.429705279282105 5 478 411
1063 1 0.37709138452752283 9.550691348860422 10.987905121648998 7.281609263905073 4 477 411
411 2 -0.880909009982371 10.401402806285446 6.023442499823431 10.90449912951531 4 477 411
223 2 -0.7568171522014988 9.15039142397548 0.4536568388173925 3.83679372518941 5 477 411
961 2 -0.7778420664322176 10.833367321014647 7.981023479275764 7.523301318763896 5 477 411
829 1 0.41549714191342974 10.865385061138978 8.72987695766168 8.923354883054696 4 477 411
1079 3 1.4324753557587582 10.928543189169263 1.7256506356251267 0.8017552365641336 4 477 411
228 1 0.37682268887519654 7.959667628841411 0.8139103476208416 -0.2697356319883 5 477 411
280 1 0.4193613835429807 10.979884465606629 8.304326572414727 4.749250327090766 4 477 411
205 2 -0.8467102399514992 10.98438809920951 3.9142305576357312 9.033688611173291 5 477 411
1001 1 0.29826651473613297 7.55420203359697 2.284378262796745 19.266514175995496 5 477 410
342 1 0.41163262667090983 4.186141985360055 2.065649847145335 17.721731859131644 5 477 410
863 2 -0.7882678184567089 8.244053577497388 2.9737147179274537 14.504612842285397 5 477 410
341 2 -0.8401975279468563 3.992239705775777 2.828843396944041 14.866008776916091 5 477 410
301 4 1.4730815785343945 5.981800478514464 10.264939055789968 13.01253286492218 5 477 411
213 2 -0.8329245112867302 -0.215217261100234 7.677867091413368 13.76008698171337 5 477 410
952 1 0.36828638129400737 1.3742517501791756 0.00609723342471008 11.188085256373524 5 478 411
358 2 -0.840305486560623 3.1995156695019187 8.929441139298822 21.21149471392379 5 477 410
344 1 0.44161165481113457 1.5824043115800284 4.518272010430809 13.805286598953483 5 477 410
864 2 -0.7288424055934959 9.800691921351968 5.546263206508599 15.542151272659757 5 477 410
331 2 -0.8600452379424982 5.228759206981971 4.760470696876903 13.317469610074523 5 477 411
360 1 0.3950969840210796 5.009824891989267 6.5800728997588 19.961174569172243 5 477 410
645 2 -0.7720823432623796 0.2992827153544521 5.351392442672974 18.82768362384755 5 477 410
61 5 0.7114568763516921 2.360320914335047 9.481941613203064 13.382517979378656 5 477 411
1118 1 0.3576359089975361 5.479595289904811 4.831690178530479 11.107794840625788 5 477 411
130 4 1.2239953380036315 3.576331149031878 0.10125639663849456 18.337318749475017 5 477 410
340 2 -0.8874510139506603 1.9525279068373704 3.6613526646987427 13.521280398263073 5 477 410
305 2 -0.9173507929735931 5.424464871239211 9.261413224119737 12.02235872146768 5 477 411
703 1 0.3536681644742263 6.41219526237341 -0.041726404489460134 14.424960088310446 5 477 411
1008 1 0.39772634199285073 9.29898754616277 0.4291442972110163 15.658342866723546 5 478 410
1141 6 1.416971492011073 9.59529917776952 1.6438698724497478 18.143337747003493 4 477 410
648 1 0.398936268139474 1.8986957752636417 4.893824409880416 21.899899908926102 5 477 410
982 2 -0.7283627917194253 1.8104597860274745 2.1135495756207168 20.95584310093073 5 477 410
330 2 -0.8008234868271612 6.208726756206205 6.785050711785624 12.165599011517472 5 477 411
211 4 1.4686283163954534 0.4485535904435424 6.571432697468017 14.657641640220131 5 477 410
1054 2 -0.7652438676621319 9.205529384175252 9.640221837662953 16.621495279534372 5 477 410
214 2 -0.8686959269927718 1.8987201525869408 6.341660951109306 14.119173140348725 5 477 410
18 1 0.38857472505673996 4.441402420047837 7.932594597249176 11.064066302211797 5 477 411
1116 2 -0.7741892546277119 8.116743852403399 3.9905649795061953 11.815629128218198 5 477 411
855 3 1.4561675176407767 0.7191197032545695 7.095009882980919 17.889797643899833 5 477 410
138 1 0.342225975477317 3.8443060890263956 1.164307258002961 20.598030776477245 5 477 410
357 2 -0.8572458810888439 5.689722885199514 8.983171655699449 20.639759012313455 5 477 410
647 2 -0.8153241017938618 0.10978509818323534 2.908998028603738 19.463381357150425 5 477 410
762 2 -0.8268494852277691 5.81489094547174 6.143626106072182 18.403528735596325 5 477 410
134 2 -0.7587209723170536 4.592167884858018 1.1123471557738196 19.911163720027844 5 477 410
1057 1 0.36759286067639135 10.03979872296774 9.03479138154691 16.494197136430962 5 477 410
339 2 -0.8209837287529939 3.8634483132706094 2.614271853020526 12.339832802300014 5 477 410
830 1 0.41507235978483614 9.031634179365758 10.813121021364177 11.957114274244008 4 477 411
337 4 1.5979059818657229 3.023767702171313 2.603775509711773 13.671053427587166 5 477 410
86 2 -0.7407691231506638 7.6652032722905155 4.205312893613869 20.137717827495308 5 477 410
790 2 -0.7963085875648408 10.792115741089706 1.0555665120506061 11.562070472729236 4 477 411
826 2 -0.894341267888844 9.921648667694917 10.967744204928184 11.527520735999367 4 477 411
27 1 0.41745236983197836 4.223391424530647 3.8578823274852994 18.611018795068937 5 477 410
362 1 0.35383899337548164 3.2017924741048875 9.61714256472227 20.502738152715807 5 477 410
698 2 -0.8791760061371664 7.427838379477414 1.2422893302333706 11.383955911899356 5 477 411
650 1 0.3928257287590358 4.516140143045622 4.409308830699867 20.85528682970822 5 477 410
356 2 -0.8782577983418138 4.457167139750952 6.747070096575139 20.777243985836016 5 477 410
711 1 0.3754863397832803 0.798454570333277 2.9450638018405257 12.142704055270695 5 477 411
334 1 0.3582992407368441 8.88707894332147 7.663509627092121 12.402475624259473 5 477 411
93 1 0.39299418233143096 5.031117328562153 3.0005044696863026 20.806127181906525 5 477 410
997 2 -0.8231651916431835 7.042928524737593 1.032671622542307 21.96555845606762 5 477 410
1049 1 0.32943095267002015 0.3951654978799594 10.956927336134653 14.319003284255848 5 477 411
1005 2 -0.8321295011139312 8.807208718236785 0.05374358769665949 16.502231270226034 5 478 410
293 2 -0.7286251954415143 0.34642988215106424 3.3305797424728523 16.484781245897935 5 477 410
643 4 1.2353886526827536 1.2453286090491014 3.9042350107090362 20.015109729271828 5 477 410
744 2 -0.8256450891998307 9.89920379780851 5.593703626538369 19.501992990551457 4 477 410
1051 3 1.4524249858142908 7.836914861728148 9.433778501062765 17.82700313457866 5 477 410
857 2 -0.6941147189256219 1.2128367234150312 9.030003992492132 17.983522812980375 5 477 410
860 1 0.34368487912023055 0.803082495485798 9.629614465699843 18.70135564860106 5 477 410
763 2 -0.9051867205182276 6.62465207746136 4.858372785607203 16.42041278491282 5 477 410
862 3 1.5009425540911283 8.145465913378219 4.604025986031296 15.483469135080366 5 477 410
63 1 0.3939841393634603 8.251297832281516 6.992995767541523 13.705906595126498 5 477 411
212 2 -0.8523599775603555 0.4699963786103169 6.850495856642062 16.143312672948433 5 477 410
345 1 0.4219476960237227 3.782341606050447 2.305910621760087 15.681123829765028 5 477 410
355 4 1.4513469635539207 4.584607670795472 8.184207555397723 21.3694510717909 5 477 410
697 4 1.5191673664301195 6.7949086566631 0.1117121835310782 12.315416314392964 5 477 411
335 1 0.4020988084814986 4.935965015502381 4.319176489051118 14.167841676354639 5 477 411
789 2 -0.7421736714036336 10.102367397204036 1.2592455771323143 14.219068708792541 4 477 411
704 1 0.3956031476121765 2.1768311317387106 0.7855948091597962 12.863470241647647 5 477 411
586 1 0.4141964810764356 4.182085655179008 9.943400173944953 15.831380743612295 5 477 410
868 1 0.3578272180790225 8.591657871888879 4.106509002178945 18.061403020284708 5 477 410
87 1 0.3999072304644948 8.149314864267692 5.048767750441041 20.135432576595804 5 477 410
1135 1 0.3994321671291816 3.5922136123346644 5.816178252876852 22.213130194373583 5 477 410
361 1 0.37829565601244625 6.488853214325297 8.501459663790312 20.23248688008418 5 477 410
1143 2 -0.7517278864170089 10.394196753011142 3.038706715666151 19.7877452706008 4 477 410
867 1 0.4241993422811603 10.517168067624535 5.751610797590276 14.828615874303038 5 477 410
338 2 -0.885349739758349 2.3644488152002556 1.2156325924845393 13.801210170440614 5 477 410
94 5 0.7332102902950879 -0.03187047965698403 0.38281767909907705 14.990886841405365 5 477 410
55 5 0.7274243324086435 0.2079888531611197 7.707469667471242 21.351449889364993 5 477 410
949 2 -0.7389399106460086 2.3417285291142846 0.22255366056433323 11.343173281321889 5 478 411
985 1 0.4149412989113595 1.7078015709313337 2.300544334966373 21.945421670597575 5 477 410
309 1 0.401894550285876 5.875518128306625 7.8710466749998655 12.269783423206322 5 477 411
858 2 -0.7990162688366469 2.5578681651814947 6.686463008215139 18.415669720215313 5 477 410
767 1 0.4039869417893021 6.735800606523146 4.384887550048409 20.424187827761273 5 477 410
25 5 0.7152272065562679 6.594497123292312 1.8835100619930087 16.207045673759232 5 477 410
760 4 1.4877804246066302 5.443604930265905 5.0782755885032875 17.339191704020244 5 477 410
51 1 0.3725435597328203 0.6150980620466973 8.144730134554191 11.111635791161165 5 477 411
995 3 1.406528109948519 6.297253912942856 0.19231382688823118 20.189005185850085 5 477 410
133 2 -0.7581953377804318 2.195566201244204 0.35926700096230546 18.944102049398687 5 477 410
26 2 -0.791345726519658 3.8990370174550923 1.2349122998266835 17.26105767948537 5 477 410
343 1 0.4147347947462532 4.543956878866402 3.324723970765848 12.301022106810418 5 477 410
538 2 -0.8862659291209198 -0.06661103681369146 10.809615042866518 20.42576414301847 5 477 410
328 4 1.4640376268394875 6.051580169597978 6.059347447749842 13.530481796767251 5 477 411
623 1 0.40374704049451793 0.2141054379079101 4.072097493993599 15.863542559757589 5 477 411
865 2 -0.8279041358273679 8.720335871704458 3.642626902288009 17.164966723069284 5 477 410
981 3 1.4771386861633122 0.7282570918889615 0.836885262846766 19.878497258422243 5 477 410
191 1 0.4062340597555748 5.443619848311645 10.711791415597187 20.041016857235 5 477 410
1119 1 0.35943599666621784 7.640457068374259 4.588106390027144 12.51776503742132 5 477 411
297 1 0.3866825916298544 0.38056134778879996 3.752027243611481 17.363568412957704 5 477 410
768 1 0.4200405525181699 3.54854345752479 6.166669410394605 17.28870949052925 5 477 410
707 2 -0.8774270054408979 0.40862828556246206 2.728124088298243 11.270421911230622 5 477 411
644 2 -0.765157515453446 1.000541647309807 4.661184509736318 21.391433979380103 5 477 410
699 2 -0.8290527610836168 6.477288597250896 0.6620387612333067 13.719428261558477 5 477 411
1053 2 -0.7989758976882112 8.042174083278312 8.337080758873068 19.341633052204806 5 477 410
702 1 0.35887902168317976 8.424517398614737 0.9287497409150747 11.134836493138717 5 477 411
671 2 -0.8225851255566609 8.865213204313761 9.30182532890561 21.669413774739148 5 477 410
761 2 -0.8355941921913677 5.00983468597909 3.7365511009402503 18.01469503277658 5 477 410
333 1 0.34209125459107154 8.966641771704582 4.519190110824412 11.572850605693612 5 477 411
674 2 -0.8176862015819678 9.059040566555778 6.735939794113918 21.912877164556996 5 477 410
1052 2 -0.7587643485931598 6.480109351402579 8.376515848755357 17.107654593872773 5 477 410
62 2 -0.7632095916842557 8.750239864252766 7.855461032785442 13.345332619992568 5 477 411
861 1 0.3327653495233445 3.1192858707440787 7.14625848156849 19.105676522454146 5 477 410
793 1 0.4433842733582104 9.679642974362784 2.1888970851942524 14.176821072860575 4 477 411
1145 1 0.3861790640372189 10.44020530692578 3.078496219836737 20.757819055647346 4 477 410
1056 1 0.3489641930964984 8.580956974212434 7.4654152286706 19.389115300149264 5 477 410
92 2 -0.7360488958521796 5.222093329103033 3.857769701901703 21.20836959330463 5 477 410
188 2 -0.9131987661591441 7.210855528761325 10.994614276795733 18.335950053634534 5 477 410
582 2 -0.7722114688275297 3.550256042874175 9.404305281476477 16.343870123701038 5 477 410
748 1 0.40006299180943716 10.199055477305482 4.5235529673640755 19.560578837409224 4 477 410
998 2 -0.8598643601527386 7.527724078689935 1.2316123536867725 19.161519498757002 5 477 410
764 2 -0.8169056946267366 4.192279575274882 5.652865575309325 16.60310878262407 5 477 410
263 1 0.4232103223422251 7.930031076149162 10.774455913325225 22.035057324958515 5 477 410
765 1 0.38177968205439633 2.6884149591222055 5.226789475493536 19.007558472564583 5 477 410
581 2 -0.8040217962779753 2.768449916465121 10.930109587562903 18.57970814043916 5 477 410
218 1 0.3785139495165078 2.5697364391779884 6.249692505936394 14.830601184195 5 477 410
580 4 1.2510038727118307 2.543887052885921 10.385399093413604 17.08772455842609 5 477 410
678 1 0.39834227534724714 9.638809960804092 6.656790640039054 21.12012994762825 5 477 410
646 2 -0.7760585860769152 2.68117615027238 4.226820835836805 19.423727691643236 5 477 410
750 1 0.4337655867596982 10.174289340344489 6.451605101451738 16.790365815294443 4 477 410
304 2 -0.845241081172288 5.554219666450359 9.877462533671364 14.463848745477465 5 477 411
308 1 0.4038986253848832 5.464469051232684 8.90322856699671 14.545758220198085 5 477 411
332 2 -0.83102640936375 5.2731080552276035 7.057514004122216 14.450676634981207 5 477 411
336 1 0.41411130239808064 4.945092139323722 6.616766915963278 15.28125501737584 5 477 411
1055 1 0.3785590602499458 5.586399999711492 8.628377197457533 16.699257226091525 5 477 410
766 1 0.4078027719104474 6.151508298665196 7.04811730353453 17.928908713641015 5 477 410
329 2 -0.9063517321221493 7.415993619442542 5.649372515693011 14.035220867094255 5 477 411
675 1 0.3887945707607075 8.516018219947606 8.967413830221648 20.68995974528257 5 477 410
307 1 0.3828487847881413 7.9009396749595195 9.334044470971165 13.16184925097116 5 477 411
303 2 -0.8600162492418363 7.536116215071394 10.263908117673529 12.980831047246271 5 477 411
866 1 0.4053262525121664 7.7048135101662725 2.634973508168673 13.72655783777168 5 477 410
451 1 0.3889844022696993 10.325031870650257 8.01912980519043 14.369799079204096 4 477 411
746 2 -0.842984800811003 10.426910588298362 7.147681560139134 17.55895881546688 4 477 410
980 1 0.3505541646712536 10.99969740334942 3.2628812889539245 16.58753668172725 4 477 410
742 4 1.4222784631615497 10.982453232723277 6.490393608119936 18.848886399523558 4 477 410
1085 1 0.4156343437091186 10.379718413650403 21.9069598170227 -0.15952756158468293 4 476 411
1113 1 0.3396225333767685 6.553116902382445 21.317420050425486 6.661841434882394 5 477 411
1060 2 -0.8541796297269201 10.494330740212549 13.509031395020243 3.7098812060961945 4 477 411
896 1 0.38437365640228827 3.426138086576824 19.007546067137003 2.437696643966611 5 477 411
591 2 -0.7427148595936836 5.975120090287446 17.01250719168135 1.5624334565927502 5 477 411
953 3 1.532552503824154 5.324002977438667 12.791910074693945 7.773638509520389 5 477 411
420 2 -0.8840357361230106 8.366436519654671 20.444457483495356 3.455433744367616 5 477 411
264 1 0.332236621400842 9.146889890351463 11.284048344676872 2.3336620860224357 5 477 411
667 1 0.40526038514722773 2.5908764956464605 15.028003816750788 6.453001608625944 5 477 411
879 2 -0.6859805176190723 0.37487368721239295 18.314269482757574 0.17058587237246814 5 477 411
841 3 1.4620684149085037 9.710085727701738 13.949281735142602 2.23319028147589 5 477 411
881 1 0.355519915557814 2.898733851770095 16.288539591555384 1.8906949817347605 5 477 411
433 1 0.3695552760235538 1.4887438269550133 11.930782705860391 0.2798027375161114 5 477 411
476 2 -0.8999951853226379 2.231656444910953 15.444235362228435 7.284170368961569 5 477 411
169 2 -0.8042690622666816 0.7101597294257571 14.916650171824067 3.1207348951171854 5 477 411
479 1 0.3863089818732353 6.027565157152471 14.526367040170314 10.98917883895922 5 477 411
78 1 0.3690024284195797 3.9256403312428674 19.367544234954007 9.775413816804187 5 477 411
717 2 -0.8364291981513833 9.037925742489813 16.225290271212945 8.603628181339838 5 477 411
957 1 0.3450149141769987 7.953336089982481 12.795759089687312 8.076699848589936 5 477 411
472 4 1.4902753334070127 2.83417271683461 14.815244887142024 8.565682799872992 5 477 411
491 2 -0.801594941177441 -0.034599604084836894 13.338529396810154 6.183869810579523 5 477 411
52 5 0.7153942106165257 6.621815828057384 21.10904354890201 9.4307397632409 5 477 411
402 2 -0.8855671759037645 10.551444141506826 15.972464665565937 2.147345590815657 4 477 411
395 2 -0.8879392098308209 -0.10195050250020576 17.10649487131887 7.244442070780101 5 477 411
398 1 0.398112398006436 1.2840945986365024 13.218154734010271 8.723480511990562 5 477 411
1112 1 0.40417139936053303 4.785451577135939 17.12803846129538 8.576870723790703 5 477 411
406 1 0.3683690546620658 10.371346647024879 16.487709975522574 3.068086406869365 4 477 411
921 2 -0.750664711963752 10.623762119456698 19.896274378510988 5.058830522046385 4 477 411
429 2 -0.8237811017780081 1.1047056925438943 11.661747878538407 1.1518942308538884 5 477 411
495 1 0.4332881452038144 0.8760810843485467 13.087855590951284 5.886820192257601 5 477 411
260 2 -0.9020942283379628 8.502114579396395 12.126262005590677 2.1634242778000545 5 477 411
419 2 -0.7863867728218852 9.20443773694755 20.980705492429443 1.1138932304412532 5 477 411
719 2 -0.8214599531232215 6.87800489011399 15.575886216455952 9.682557632134396 5 477 411
423 1 0.4311749248803792 10.403421934092698 20.110716597331617 6.001132821609596 5 477 411
724 4 1.3989461445909663 9.821665474396228 22.307920124039544 7.942023605715416 5 476 411
173 1 0.3918748771362316 1.1604464721251806 15.585862323614013 2.374532036152225 5 477 411
1069 1 0.3742934170484603 4.515639001500755 14.423915084933563 10.339173649076672 5 477 411
172 1 0.4102442369126438 -0.055302834679984564 13.111634334982462 1.2790234621560705 5 477 411