LAMMPS data file via write_data, version 27 Oct 2021, timestep = 4000000

1038 atoms
6 atom types

-0.17029157364761716 22.170291573645653 xlo xhi
-0.17029157364761716 22.170291573645653 ylo yhi
-0.17029157364761716 22.170291573645653 zlo zhi

Masses

1 1.00794
2 15.9994
3 26.981538
4 28.0855
5 39.0983
6 40.078

Atoms # charge

300 2 -0.7826461551074345 2.4799625983558755 4.276897527592194 6.569811840344773 503 191 -124
805 1 0.3569322218077867 0.19057001834306544 0.40863131122887164 3.525926565809469 503 192 -124
42 1 0.4032801785811835 6.507522286207225 -0.022734480089419442 6.275102937688489 502 192 -124
226 4 1.4043955073010586 1.7526728796820152 3.476411517814585 1.4247451366794024 503 191 -123
47 2 -0.7890670476398288 2.0518489160209548 0.08278016024439397 2.622217811635019 503 192 -123
488 2 -0.8121385148766048 0.9892261837647012 9.89304172449278 3.4317514798552087 503 191 -124
408 2 -0.8303115909581958 4.295858896164811 2.456864782967134 6.864579079560552 503 191 -124
229 2 -0.8520169243104526 0.684410971616257 2.8505515316084646 2.3757918482499645 503 191 -123
989 2 -0.7522836907055824 3.422537402719042 8.989686515096615 4.515855818176757 503 191 -124
412 1 0.4021062310288463 3.284096990223118 3.5067693335430588 6.47792172973346 503 191 -124
104 2 -0.8107521947001816 6.695968221258378 2.9864868728938934 5.860835282881024 503 191 -124
27 1 0.3404789617201599 5.303415143959588 8.9857742748117 5.699790390401188 503 191 -124
303 1 0.3802698231700871 1.2678182570649725 2.4879474741582928 4.079298640497212 503 191 -124
650 2 -0.7963253128918812 6.062111022231087 10.698413608522886 4.565742757820227 503 191 -124
654 1 0.29295453213251393 5.046233146423334 10.515046278517673 4.698207086471399 503 191 -124
233 1 0.38627974227588135 -0.10342661970296368 3.526891664933685 2.5933962908786286 503 191 -123
649 4 1.1153321082063246 6.710017624210714 10.92087705406807 6.5411128478102265 503 191 -124
26 2 -0.7555625484351892 5.435623499843738 9.26270415576856 6.686012744094115 503 191 -124
411 1 0.4073819169778922 5.717520088900159 2.8462266137212384 6.220135117156606 503 191 -124
41 2 -0.7209753547841637 7.1337913198159155 0.5034944288812107 6.959720573123197 502 192 -124
277 1 0.43087495686075583 6.509509542938207 5.975456750444566 5.675574773061006 503 191 -124
504 1 0.3543346043066697 7.167992656564611 1.4298334829674264 6.623796254666202 503 191 -124
273 2 -0.7833101094905114 6.8792781785367065 5.648705855017225 6.548902381420665 503 191 -124
105 1 0.3551976389692982 6.995509548641142 3.826297795444813 6.283585906597698 503 191 -124
49 5 0.6882349321344255 3.948216888629849 1.238103771772375 4.503387085428704 503 192 -124
647 1 0.40014081223971654 5.857034405998429 7.130517171600405 3.5534959990878683 503 191 -124
643 2 -0.7916896794599343 6.018267896660512 6.153226595075931 3.9492526823958496 503 191 -124
646 1 0.40293807320992664 6.63645480744679 3.61691131934328 4.326016592240673 503 191 -124
944 1 0.4082620537969444 4.193584080786496 8.852081942818213 3.8469747593685497 503 191 -124
992 1 0.398469736427381 2.6376772894582827 9.256059590175221 4.000744364243817 503 191 -124
492 1 0.40299002179536847 0.9015294117311138 9.578510000200424 2.491361773089358 503 191 -124
372 2 -0.7564381413328224 2.510428806795387 7.436281215581383 1.4009711839943184 503 191 -123
230 2 -0.8292654675257961 2.8825248088655004 2.422658074111707 1.213778194373596 503 191 -123
232 1 0.39991650444236115 1.9552842627259417 4.915926544817383 3.024167584740008 503 191 -123
538 1 0.37699699264008507 0.8968042568956155 10.707744480553691 6.4536090422579 503 191 -124
534 2 -0.8245701479244771 0.42801566554315873 10.233458985614972 7.193473130690017 503 191 -124
298 4 1.398341845452212 1.2487860545034937 3.9303812059285215 5.682030105338426 503 191 -124
302 2 -0.8015225637460756 -0.052384519044708 3.788173722520324 6.555628197072718 503 191 -124
299 2 -0.8527798357557509 1.5014979707798821 2.5204693883603047 5.041263113339183 503 191 -124
31 5 0.7217192404016198 1.66886962881339 7.604961462708141 6.112895838299684 503 191 -124
776 1 0.35576986643544334 1.4921178771349322 0.6608678235342859 6.004890283806497 503 192 -124
305 1 0.3926500213732086 0.07831701756117287 5.475271814864021 4.652990150850741 503 191 -124
644 2 -0.8570477962218559 6.058377731947445 5.422559683645453 1.421630505900625 503 191 -124
301 2 -0.8728580724125069 0.9889140044515694 5.047659333450519 4.622480624908635 503 191 -124
939 3 1.4212632763118427 7.000902908178359 9.82645097535622 3.0861525816493525 503 191 -124
642 2 -0.80087595696398 6.67919484891513 3.7280262029383504 3.3039950513032275 503 191 -124
640 4 1.4055186812114793 6.602777868967432 5.220171092242094 2.844368462039699 503 191 -124
373 2 -0.7558613027004384 0.015731544849489174 7.007248866707207 1.3134885697434469 503 191 -123
941 2 -0.7900598616735452 5.519347881599235 8.559319976834097 2.9425858629827686 503 191 -124
50 2 -0.7886708230796573 5.349332311841602 1.6592359095205345 2.029219970098502 503 192 -124
648 1 0.3573801678316887 5.0586751592723695 8.30766667188909 2.0845221514788297 503 191 -124
234 1 0.39395535390371045 2.123923916932031 0.9149211981384665 2.1186193378114324 503 191 -123
51 1 0.3865697589710622 5.822666726020779 0.7925636314049515 1.9410343320247128 503 192 -124
48 1 0.4058152506331634 5.994358359837112 2.281933775058641 2.419666163320432 503 192 -123
228 2 -0.8328654306925231 2.388188818531967 4.720680922188409 2.1398075799180303 503 191 -123
186 1 0.37853467895749027 3.728809996995545 2.5589868902556594 1.7108649324932153 503 192 -123
376 1 0.40782969554643206 2.473055100545439 6.528361759025154 1.7552396279266762 503 191 -123
634 2 -0.8840745743260296 6.9823166872669 10.240720433057636 1.3571556120504702 503 191 -123
763 1 0.3939837952392302 4.33749737814592 1.1397055640258649 0.23922462249429433 503 192 -123
375 1 0.4147518507734405 1.8547904986559676 9.72505396946602 0.583292813467482 503 191 -123
98 2 -0.7268577190236997 3.162140637326851 10.695012296282561 0.5934015167062233 503 191 -123
227 2 -0.8093400834389854 1.0708372893101998 3.7854813920500576 0.05217792774267005 503 191 -123
370 4 1.3838614210593239 1.1992498861168641 7.71670420287746 0.5893921019676432 503 191 -123
371 2 -0.8470689404644985 0.9421790838428145 9.2471232936203 0.5979982463371115 503 191 -123
631 4 1.4591186205320057 7.19532261927436 10.498058538858352 -0.11617509501812506 503 191 -123
210 2 -0.8732591210849091 11.123247503454818 0.3616953306890074 5.27013683281166 503 192 -124
846 1 0.39780944970017734 12.806642256719028 -0.14237817508404932 2.715419995837222 502 191 -124
591 1 0.36600557831457114 11.883314278802148 -0.03306172314694003 7.083084445059324 502 192 -124
278 1 0.3457693948511799 8.907436742707505 5.49990998085987 4.727665075720099 503 191 -124
557 1 0.4312334875661241 9.359325698870233 0.5268893869314983 3.580305202967571 503 192 -124
653 2 -0.6944423409122477 7.983170087868915 10.184182137914265 7.148554073033712 503 191 -124
274 2 -0.861690651205115 9.256867632141478 5.364107068800325 5.638582004818096 503 191 -124
705 2 -0.7957334549573857 11.908304734086862 10.526531856940622 2.154654569800244 502 191 -123
657 1 0.4358274440240631 7.912772793782817 9.219444393772335 6.992938977813627 503 191 -124
271 4 1.3428779079989925 8.393689232090672 6.020965781272905 6.775211178824384 503 191 -124
272 2 -0.7592131984975381 8.616586576983893 7.572915268245859 6.7956330251534816 503 191 -124
942 2 -0.8293340526650971 8.308752899396985 8.332071996480357 3.517212365309889 503 191 -124
703 4 1.5060907895265196 11.857717615942525 9.378190021805395 3.2185082643746097 502 191 -123
707 2 -0.8501757638975509 11.193384468300932 8.072702327345057 2.672208378093107 502 191 -123
552 2 -0.8467428404840499 9.954420183373939 3.9129863009092456 2.680471838750627 503 192 -124
711 1 0.4114274038979656 11.526377810354141 7.245239163146056 3.113153911740365 502 191 -123
354 2 -0.831305910777741 14.091896327611401 5.6139422220699045 5.368388190407691 502 191 -124
355 2 -0.8869942228258135 11.968935449315644 4.561438007539648 6.008320649914846 502 191 -124
357 1 0.42905708131947595 11.293975646250312 4.989072983130854 3.321806053805832 502 191 -124
710 1 0.3510497079892168 12.513492381050138 7.442658888508409 1.255792080571871 502 191 -123
945 1 0.37068719790080323 9.322447970285982 8.518192294472355 3.453660699072849 503 191 -124
554 2 -0.8440871563459111 11.17047141427326 2.204263980082495 1.2752244877981986 503 192 -124
352 4 1.4921995061006146 12.896505941210945 4.797350428033197 4.7803594894680845 502 191 -124
709 1 0.3667734536090822 12.858964106732858 10.61159629686568 1.7200399278814322 502 191 -123
638 1 0.3680916325539302 9.598375366995432 7.595964666302922 1.3201086338370833 503 191 -123
933 2 -0.7946186578143565 13.068864128739056 9.893753608643765 7.050396391479619 502 191 -124
704 2 -0.8417627980666756 11.021365111211816 9.830629060158074 4.444953909283405 502 191 -123
843 2 -0.7828738565496615 12.954009097517396 0.8545893921407325 2.6858356056939954 502 191 -124
936 1 0.3388148362294102 12.761242883677745 10.517463383682964 6.310128073734636 502 191 -124
358 1 0.3931305181370698 13.85369466907038 6.064988302701141 6.259704492007663 502 191 -124
553 2 -0.8412827641972914 9.72007271282745 1.4210873432506241 3.17540803802518 503 192 -124
214 1 0.38501010355341575 10.94555218545329 0.8547667366578201 4.434902725597117 503 192 -124
558 1 0.4170841856569625 11.809808820695572 1.537516521166887 1.792943233267957 503 192 -124
267 1 0.35499192940639474 13.93609400603939 3.7590560784591704 6.7394610274791855 502 191 -124
708 1 0.37966083278545476 10.996266373888902 9.089120444040844 5.171042236903959 502 191 -123
938 1 0.33805518003215534 11.20132174686119 6.9756499880671745 5.650771522903743 502 191 -124
359 1 0.3852723896710511 11.046161832738532 4.878395496995613 5.856124521396878 502 191 -124
76 5 0.6859906487284536 9.913398341351034 2.482947478030593 6.840852322023935 503 191 -124
276 1 0.40927007603977505 9.640474973552102 7.809676448983019 6.614355639983746 503 191 -124
935 2 -0.8202052596300657 11.188645530462967 7.830556006215159 6.215782603096444 502 191 -124
943 1 0.4025178669053193 9.450892122351243 10.809609748980508 3.830204695407526 503 191 -124
841 3 1.4250282491811164 14.098552550914926 2.015066321090402 3.5557100306957206 502 191 -124
356 2 -0.8833675073168745 13.40792361116011 3.451733873609566 4.3087960263520895 502 191 -124
706 2 -0.9424588079698807 13.298024332654306 9.115321393913337 3.5467137102064648 502 191 -123
353 2 -0.8324570871694207 12.011784900428129 5.569208700827177 3.727504652118939 502 191 -124
68 2 -0.8511381690363629 8.763951472711684 2.3014952207774084 1.0276133909084242 503 192 -124
550 4 1.5415787815318787 9.883376729211703 2.4783810158668116 2.0875975671082805 503 192 -124
645 1 0.33363875224833045 8.187243863609478 7.356684235335841 3.1153933585119344 503 191 -124
641 2 -0.874250280663816 7.980447822050715 5.694921843521474 2.3701504423217092 503 191 -124
556 1 0.4230227755127513 9.073330505904751 4.453810575082974 2.5675021029046956 503 192 -124
924 1 0.3823404615623457 7.949157045223407 0.40664014972392004 1.3478030454304504 503 192 -123
906 2 -0.7848300315806295 9.101574030950522 7.419446694693367 0.43539310286073357 503 191 -123
904 3 1.3922239578416935 7.641509472926342 5.967785279035276 0.4552596557917068 503 191 -123
69 1 0.3787117430345221 8.62201898311755 3.169253253294736 0.4814698109498209 503 192 -124
909 1 0.38374439560062207 8.882291582481828 8.370617082053526 0.06596310135982107 503 191 -123
950 1 0.3434825742447689 12.677588532744625 6.081462903841044 0.3151059381956418 502 191 -123
474 1 0.42268430902777093 11.856216276064078 3.4694821897603783 0.12246772984094394 502 191 -123
947 2 -0.8177836827007965 13.023487503362077 7.0887568270259775 0.39195420128948166 502 191 -123
859 1 0.3555787833821783 13.841773340945455 10.865128473902566 -0.004396481687995165 502 191 -123
802 2 -0.7515774125707118 21.53053394031098 0.33674690536290014 3.7005946774761567 502 192 -124
957 1 0.36075849794021364 14.937028405574253 0.24441480219367367 6.736334496179538 502 192 -124
377 1 0.4256401203482521 21.538791773877744 7.537896807642217 1.2393903682335752 502 191 -123
912 2 -0.8152866472968459 17.902241848782236 4.3718378616017555 3.0561904621443587 502 191 -123
46 5 0.7259173699736472 21.113629269498322 0.8150791568031415 1.2498032508943202 502 192 -123
911 3 1.3879047483426377 19.357241653134302 3.6897795276847676 2.1332549732866193 502 191 -123
915 1 0.3687446280331327 16.93658081029998 4.506924712926449 2.7209655579187455 502 191 -123
726 1 0.39345601905854394 19.204781311742458 7.799728804817775 2.2872116921197025 502 191 -123
963 2 -0.6883789835635601 15.716551974523906 5.682046975641627 1.2981738469712605 502 191 -123
603 1 0.394877701613405 20.720638329911644 5.598214960643956 3.884575082570299 502 191 -124
917 1 0.3292048165367419 18.59133202627155 1.1894768231157509 2.1015454425130056 502 191 -123
387 1 0.37359922429691855 14.932807933805734 6.157138154353486 1.0180511143967836 502 191 -123
914 2 -0.8168382419445628 19.201949337104413 1.889621720916754 2.582914243814455 502 191 -123
913 2 -0.8148790570309918 20.94654771748766 4.536805070054953 2.6516779675546425 502 191 -123
314 1 0.3710376310141306 19.983361923779047 1.3258782370667135 5.88287335586601 502 192 -124
722 2 -0.8202507359340934 19.766877779213306 8.117992535206998 1.5229887399698436 502 191 -123
959 1 0.344377928179146 15.412569347797012 3.1883181650980235 7.0895225446599675 502 192 -124
97 5 0.6895566469860882 19.372459888209065 10.662632230819025 3.0937911272668 502 191 -123
360 1 0.42261771787529817 15.576440239014602 6.6795599107995045 4.918878818319575 502 191 -124
599 2 -0.8469739992389803 20.780638308675677 6.294790129091585 4.66580739404544 502 191 -124
965 1 0.3629340421614883 16.319902584991237 7.981068000466361 1.382016711529532 502 191 -123
674 1 0.4496671387556911 16.67743750136315 9.506512956765768 7.260938247744314 502 191 -124
847 1 0.3575666564073057 15.356837613495026 3.2624033636225374 1.6309331827097964 502 191 -124
961 2 -0.7188561704466297 15.932413569382586 7.587457754087125 4.556649887956661 502 191 -123
916 1 0.38349317935729593 21.448523211128684 5.261335616076879 2.1044971972911806 502 191 -123
962 2 -0.8761627785355447 15.780554291503686 8.768434227759764 1.8537897679203421 502 191 -123
844 2 -0.8295667565216914 15.46202644445233 2.6097996729983195 2.4218845874375123 502 191 -124
855 3 1.3681526115336557 15.850946052223886 10.699153422722606 1.7319955517473768 502 191 -123
842 2 -0.7690608885036624 14.994427878491631 0.8402869593955384 4.684368166785113 502 191 -124
596 2 -0.8744605612230043 18.615305491364502 7.639435339972537 4.019406211752631 502 191 -124
960 3 1.407393243147946 15.060513269678726 8.976925130919891 3.6345104555593832 502 191 -123
112 2 -1.0699964669517539 15.87178193056739 10.739692335766017 3.6465348304744256 502 191 -124
308 2 -0.9087077660583327 18.43141362054005 0.7488175048916667 7.265875541900341 502 192 -124
33 1 0.3866523464284326 19.82256492997171 10.98978081851852 6.926612578183559 502 191 -124
32 2 -0.8066595373654442 20.112464204159803 10.368460220796276 6.213436798668219 502 191 -124
926 2 -0.7526092035940142 20.430749463140575 2.1034396017724615 5.483341871187138 502 191 -124
597 2 -0.8527912294062038 19.589824555593104 7.67407750798661 6.42750100396032 502 191 -124
306 1 0.45083092746368625 21.595228183233157 3.182852202155748 6.132090132474596 502 191 -124
601 1 0.39996365208309603 21.068354632158858 10.237896517804543 6.405665670533977 502 191 -124
598 2 -0.8257904581274236 18.47890412402951 5.603590938679817 5.3729446401732615 502 191 -124
115 1 0.40904089227650603 19.692772035610535 8.67296865739842 6.299007741415846 502 191 -124
630 1 0.3799094184907343 16.248811041277953 1.2508606273699916 1.763425866894361 502 192 -123
964 1 0.3489886580715323 18.184692529096953 10.64586758926098 5.805968414844562 502 191 -123
111 2 -0.8126062390714198 17.210597999685824 10.457508749606443 5.755372751009723 502 191 -124
735 1 0.3819728068053168 22.031663391288472 5.5797692693378576 7.161871918602638 502 191 -124
930 1 0.3682892904551556 17.474824259130102 4.269689912695078 6.188009100565088 502 191 -124
927 2 -0.8140308941829408 17.2216200198909 3.382241810192264 6.6709645557438275 502 191 -124
929 1 0.4030178228917706 20.777284005832538 1.7720908988101407 4.617814736582267 502 191 -124
600 1 0.4094375708131682 17.584080776187903 7.58237145401557 4.152960536562533 502 191 -124
66 1 0.37672739834854185 21.177184143568862 6.864830308492044 7.0300387686450865 502 191 -124
595 4 1.5234085861835258 19.395483254571417 6.842811695156082 5.119406279173113 502 191 -124
602 1 0.3910696281087597 18.231845112547788 5.116421900949347 4.492219491410683 502 191 -124
52 5 0.7363284198937475 17.217225897574316 2.1601197814616673 4.390244983052596 502 191 -124
626 2 -0.7426977664497431 16.677501459870637 0.3249728528958826 1.665800005922599 502 192 -123
623 2 -0.791300671587182 18.556800651631413 0.20613214404615532 0.08751278746070434 502 192 -123
622 4 1.1975681189759206 16.961145573766153 -0.04913073005632535 0.13932522972046701 502 192 -123
966 1 0.3908721531045954 16.433520737041082 6.073412617660369 0.774577113668964 502 191 -123
383 2 -0.9331295468501842 19.493793249999218 3.649025160164212 0.3796266932952842 502 191 -123
725 2 -0.8308529272385154 17.70524918150474 7.348297045330868 0.08643917099749586 502 191 -123
721 4 1.3594132930179652 19.099537022108272 8.047517203855483 0.10908325509735861 502 191 -123
727 1 0.3958416857396647 18.42968892772525 10.131476293486715 0.29466323508443004 502 191 -123
1018 1 0.389099884589844 4.011901172240469 2.6019491924675338 12.022359949606699 503 192 -124
838 1 0.3893997109862915 4.972133246043966 0.9661893825496699 13.191090289178888 503 192 -124
713 2 -0.8184407866724775 2.083098478670842 8.8878933636239 12.34733780584114 503 191 -124
835 2 -0.7904390512755487 4.670501308674889 0.23331592449900918 13.81899513489048 503 192 -124
784 1 0.3931861518883125 3.9849643850862577 10.373690143650236 14.567287488943666 503 191 -124
740 2 -0.8208921312546174 2.1212138432932126 4.193104666554917 14.394929074755863 503 191 -124
879 2 -0.7663582118500052 2.1184252437857265 6.9838183167122185 14.623023044274762 503 191 -124
712 4 1.4370120991444084 1.871051656579248 10.437368622598983 12.432946468443085 503 191 -124
882 1 0.40750673816860045 2.3117559347086476 6.024828556526924 14.547526940878166 503 191 -124
74 2 -0.728295215048544 0.4281602410404668 6.788398386245961 10.419755048173469 503 191 -124
717 1 0.4012833312517604 2.027279346034324 8.425842066105105 13.214186222055458 503 191 -124
146 2 -0.8162415520133534 5.486650117218394 10.699364226131992 12.200012324510238 503 191 -124
781 2 -0.8406277680565383 4.905107622505292 9.868868708257775 14.671487670312633 503 191 -124
409 2 -0.930167936937062 2.8534796998136756 2.9082363072320345 8.855777286020444 503 191 -124
406 4 1.6344035811803013 4.061936606599213 2.1066624065784385 8.317244633680131 503 191 -124
496 4 1.5586407276764755 7.224456945812427 2.8987106205537985 12.876753815782884 503 191 -124
714 2 -0.8186730483192705 2.2648714738873603 10.799848536106023 13.893916242037983 503 191 -124
500 2 -0.8219020108258632 5.669665833174474 2.9859256113104626 12.887581651814045 503 191 -124
782 1 0.35106485283761185 4.893368065316383 6.622936948151106 13.033835288141622 503 191 -124
779 2 -0.7803340935440852 5.451478453122231 6.637832065582692 13.955792344924816 503 191 -124
150 1 0.3819834239082162 5.438665877265119 10.327521929767162 13.187636229926898 503 191 -124
666 1 0.43834749778638993 5.331671255783947 3.168640536520776 13.816796292124959 503 192 -124
486 1 0.3468585645182458 6.4406299043464985 6.4806624248647005 13.638152136256139 503 191 -124
91 5 0.7193277353948382 0.33778306095537175 2.4657918309788753 10.430960576239501 503 191 -124
502 1 0.4547581505253078 7.034210743210931 0.9290912769351729 11.679771262711514 503 191 -124
877 2 -0.8190954986837554 4.351250523530635 7.296800346487186 11.48251772467391 503 191 -124
880 1 0.38951553713194254 3.5721398111675953 7.9338736965344765 11.66544952690923 503 191 -124
1016 2 -0.743915827399631 3.145598961108134 2.4574544209845843 11.60974655365005 503 192 -124
532 4 1.517020259661341 1.2538555274692778 10.198703849016809 8.52699927388161 503 191 -124
295 1 0.39952444056888087 7.084725507169145 2.8707311019779858 8.891800087607072 503 191 -124
533 2 -0.8023320907929687 0.45082958063357104 9.453461598546523 9.649105704939299 503 191 -124
537 1 0.39274859802247325 0.45853536595198596 9.952973816290354 10.550846409224016 503 191 -124
1003 2 -0.7260243395419624 -0.1692921217170209 0.44325416188914646 8.968846084260107 503 192 -124
407 2 -0.942376053105227 3.7732417984039985 0.6498038652644768 8.437066585545093 503 191 -124
994 1 0.3550509989650869 5.727285876756725 9.952423216354354 9.944858145195463 503 191 -124
414 1 0.44410599089654407 5.632148082128589 1.631503034215619 9.707807786222657 503 191 -124
75 1 0.4297428829474527 0.4232059222141846 7.638065639089769 9.914957553756663 503 191 -124
410 2 -0.8617119659305412 5.285724275514794 2.448051427483411 9.208469240455523 503 191 -124
662 2 -0.8401763108968827 6.4964672193721045 0.49530221895502125 10.707107784138978 503 192 -124
743 2 -0.8313951421395805 1.2798002299999967 1.7987827937285474 14.376058151390087 503 191 -124
881 1 0.36526078342477525 5.477526353301388 4.709957053467507 9.477671216590497 503 191 -124
716 2 -0.9502175203272968 0.43415994034109384 10.794237406626571 12.116824154388876 503 191 -124
718 1 0.42714488614150514 1.4930972661880013 10.976368306491542 14.504481367729698 503 191 -124
1037 1 0.38869625932158125 0.2051993172557394 0.9276008815464256 13.580856559315114 503 192 -124
739 4 1.5252213205893712 0.8736416943447156 3.2595141382167667 14.41472762010101 503 191 -124
878 2 -0.8119819052504039 5.1729111017032 5.667527373761633 9.439484320551415 503 191 -124
991 2 -0.8509106256927458 5.365003871841678 8.987531160281518 9.52123650702987 503 191 -124
747 1 0.3533700136499341 3.3369605092751855 2.369063298542789 10.662946717215766 503 191 -124
103 5 0.6936353957823688 3.0234256114934333 5.19077967304018 10.839530033780632 503 191 -124
876 3 1.3946083925530912 5.752968059983458 7.257438643462873 10.205241339416053 503 191 -124
738 1 0.41920325565567224 0.4670236035064146 6.7046639841851565 14.329586302609556 503 191 -124
736 1 0.3665118677165705 -0.10900170701101948 9.426795053959578 13.120149254201952 503 191 -124
742 2 -0.8592107157606546 -0.07148900391073146 3.7560232454903613 13.247988575938553 503 191 -124
413 1 0.40028062044067464 2.479078117878567 3.5146066422293356 8.162005704643912 503 191 -124
536 2 -0.9386238238080736 2.6109490712747054 9.605211395130246 8.240205810971897 503 191 -124
988 3 1.4042542535649372 4.168966135098367 8.769542243784171 8.088129136314706 503 191 -124
990 2 -0.7654713151374886 3.5589834663867688 7.058369963236396 7.655852173444227 503 191 -124
993 1 0.3877146318897313 3.9639721018161307 6.132790546703154 7.838440780377184 503 191 -124
664 1 0.4231502698115013 8.553203712103759 0.24451953024328832 13.318262486213069 503 192 -124
8 2 -0.7351197610067222 9.615459936850161 0.11062103395448089 9.872257445478125 503 192 -124
501 1 0.39310297876739986 8.053888778983964 4.697315103727168 12.06060971576837 503 191 -124
673 1 0.45711268310858444 14.703686996405144 9.472340602290751 10.806217775175856 502 191 -124
294 1 0.4281286684058149 8.805322886716336 9.25499536292968 11.793487972915505 503 191 -124
149 2 -0.8142795606882304 7.986918092279339 10.789344286586534 12.43128838036596 503 191 -124
17 2 -0.806219543749451 13.897010964157165 1.7317876180927811 10.243442984695815 502 192 -124
498 2 -0.8427453015891856 7.663809480214298 1.4619206109008227 12.660897295293257 503 191 -124
55 5 0.7041901478418111 12.362380285315552 0.18158350631202463 11.747457394944732 502 192 -124
393 1 0.3774556885537289 9.727376325855074 -0.05099901747014122 8.930192140057807 503 192 -124
9 1 0.4344394481835124 8.684585140982904 -0.085684410701744 10.022407462894437 503 192 -124
955 2 -0.735423325584723 11.932719735155223 2.8652079915479383 8.260821330536674 502 192 -124
953 3 1.4490764433771837 13.452610263214517 1.697934431571866 8.43158612688589 502 192 -124
153 1 0.371462030975493 8.02946032206528 10.641866622300823 13.426282356569729 503 191 -124
503 1 0.40350516846828377 9.291190463053272 6.06313885526998 13.365091452910802 503 191 -124
279 1 0.3795226282170901 8.385117878664136 4.541405008438702 8.3932306737827 503 191 -124
291 2 -0.8529712724154026 8.450538532668437 6.359984351745224 12.832726795590888 503 191 -124
293 2 -0.8363907541777156 9.768853411741395 6.288401638442432 10.660941091894236 503 191 -124
499 2 -0.9428494710368956 7.796464136329 3.4335302730899286 14.160749304161994 503 191 -124
497 2 -0.8287458391143248 7.75416750858564 3.8081000553232975 11.727888498173558 503 191 -124
289 4 1.498727352814502 8.7587862001594 7.123797777372587 11.513561681730176 503 191 -124
62 2 -0.8348036154391013 11.515331434889841 8.721925190643548 9.189541439928036 502 191 -124
266 2 -0.8476017427390695 12.855757469800665 5.3099017952112915 12.658179066520937 502 191 -124
290 2 -0.8214492269670985 9.440359275490708 8.49613441982709 11.824349986712514 503 191 -124
574 1 0.402689947281284 11.1682964129639 2.7805273796542216 9.995581985780902 502 192 -124
77 2 -0.7782075392147623 8.040294390806611 3.0668305060838827 9.018722832116389 503 191 -124
81 1 0.33117294286083476 12.517610027029853 9.154523490381449 10.458455929463371 502 191 -124
297 1 0.4359464220314798 9.38343962715859 6.007889488082031 9.784853865852497 503 191 -124
332 1 0.41058464237553094 11.941020446085394 8.066145187991255 14.547882266167385 502 191 -124
324 1 0.4236310875955419 10.396485237562578 9.47142615071333 13.095132418138501 503 191 -124
269 1 0.45089467782252235 11.541995858179781 5.713987695227299 10.511976685463882 502 191 -124
265 2 -0.8121409278563559 12.421938137507833 5.457837849908892 10.173849322096473 502 191 -124
814 2 -0.7919597695924866 9.957250876154056 5.248025416781394 14.682534126605255 503 191 -124
63 1 0.3569085113193496 10.867400873654747 8.169772311205257 9.75667614410086 502 191 -124
71 2 -0.755332568240479 10.782701704558143 2.4078540743880996 10.81672048564528 502 192 -124
368 1 0.35924290768334616 13.445666331391335 3.4782731347189872 13.03265567997393 502 192 -124
270 1 0.40600995972546017 12.905024467397087 6.116840332184229 13.228288078713774 502 191 -124
78 1 0.44325005014570473 8.123495118742749 3.2530998840667937 9.978942017786164 503 191 -124
618 1 0.3865925920647876 10.178939093619697 1.6862123880933184 10.516705370283741 502 192 -124
364 2 -0.8103519392559867 13.769651579198518 2.5909950254759884 13.295748771659296 502 192 -124
328 2 -0.8220635851499862 12.801260640732723 7.771360751752002 14.175788107236238 502 191 -124
13 5 0.6853005309673452 10.751448521820667 2.924928005803228 13.691444392524115 503 192 -124
320 2 -0.7928114514539454 10.739045632761425 10.027223471455592 13.865113919541196 503 191 -124
263 2 -0.7764641911530332 14.640260217060321 4.525930989951976 11.021395459789472 502 191 -124
264 2 -0.8220825534685612 14.19855717301839 6.967139353175979 11.25519815334881 502 191 -124
262 4 1.4103701293690807 13.50912604808234 5.582613057521852 11.278376909445068 502 191 -124
80 2 -0.7121492709374547 13.07574652211536 9.498399251474439 11.254029473150169 502 191 -124
18 1 0.3674380630867922 13.93904495036938 2.4614058981637643 10.945251405767488 502 192 -124
268 1 0.4261025383365753 13.628521403239366 7.664325633081995 11.616456100974222 502 191 -124
331 1 0.4133512437200518 12.649532245650972 10.33453319000221 11.544303325969938 502 191 -124
292 2 -0.8835386281438447 7.423487309683626 7.257817565494766 10.805253006722127 503 191 -124
937 1 0.33265320634589607 13.390136205897187 5.938051354019742 8.280566193809964 502 191 -124
954 2 -0.7654816037539853 14.705585925743433 0.3388482502554993 7.716446526092072 502 192 -124
587 2 -0.7635393043601352 12.366367747013852 0.1383949892521893 7.971474498061379 502 192 -124
275 2 -0.8006708707398084 8.886616323440638 5.416578809859142 8.137229409601337 503 191 -124
956 2 -0.8048830124744115 14.461801476153429 3.2876374059301767 7.478673306181097 502 192 -124
932 3 1.3532667515742922 12.401308059007086 8.242220974910797 7.6160721242579275 502 191 -124
958 1 0.3889545223002685 11.93903518315471 3.8026835199602864 7.812751782910907 502 192 -124
934 2 -0.7974050307133754 13.610981436296164 6.809863597470609 7.739918930506293 502 191 -124
672 1 0.4030808328448272 14.235472750468967 10.612662409028115 7.966759244893505 502 191 -124
369 1 0.3761597043528155 16.131935672782905 0.4807566748523333 13.984927010073774 502 192 -124
1035 2 -0.7475405427355964 22.034234059732803 0.12564923167323439 13.10546080106392 502 192 -124
93 1 0.387995909725835 17.764867656548 3.8720575926730794 11.610931528345358 502 191 -124
53 2 -0.7179117440843178 17.30254642682471 7.605736187036963 11.753208594589884 502 191 -124
65 2 -0.7329477160078716 21.89055571068398 6.457584398696957 7.563809174627913 502 191 -124
774 2 -0.7270228988060071 19.633806531717607 0.639348568438872 10.649630155374643 502 192 -124
669 2 -0.797779863944126 15.692141389119826 9.491441286026038 10.543024891755028 502 191 -124
92 2 -0.7354564799413343 18.730386455320684 4.08700621990313 11.38506205167146 502 191 -124
304 1 0.40715610650563744 22.15243807081645 6.135855222963256 9.933663439507832 502 191 -124
789 1 0.31003651972945456 21.634350350426622 4.7688740473095175 11.350167686196537 502 191 -124
787 2 -0.8437218220868534 18.613999297513978 5.871263944229652 8.871935906686579 502 191 -124
312 1 0.3889587343960029 19.26387461118692 1.1370345485797324 11.46029990621166 502 192 -124
931 1 0.32643976728078317 16.077909066421395 3.0006104806435943 9.47945382454674 502 191 -124