LAMMPS data file via write_data, version 27 Oct 2021, timestep = 40000

8784 atoms
6 atom types

-9.234799107290172 53.71743765317204 xlo xhi
1.8007819894141086 42.68185655646727 ylo yhi
1.285551900767686 43.197086645114354 zlo zhi

Masses

1 1.0079
2 15.9994
3 26.9815
4 28.0855
5 39.0983
6 40.078

Atoms # charge

3786 1 0.38024356112753954 -4.431778770209315 6.4962872850594735 8.018791842352144 94 -240 13
4333 6 1.2756968961322408 -6.750922118506146 3.841570349927337 6.933989883561021 94 -240 13
3317 2 -0.7718019773288636 -4.716906592456121 4.952379588126734 7.954585425818893 94 -240 13
3597 1 0.41305145603785864 -3.7769029358464596 4.744927105153968 7.849735909528284 94 -240 13
4337 1 0.3994880961922624 -7.313215814802689 6.843032688235906 6.590082510588614 94 -240 13
4335 2 -0.7652937060111915 -7.071883213826523 5.964998433839683 6.290550642346439 94 -240 13
8359 1 0.41094107752112 -4.388543675095057 8.38527625935474 6.7364008839926 94 -240 14
7751 2 -0.672464253680028 -8.550481223306493 4.174109649922585 5.273110853166209 94 -240 14
7752 1 0.3591112224375055 -8.358552337224033 5.086863015576107 5.513670835403946 94 -240 14
8358 1 0.4414539123981535 -6.295789608637069 6.713483786840922 5.081403524668762 94 -240 14
8354 2 -0.8227176851745618 -5.833333740169511 7.452694538872951 4.511733405755143 94 -240 14
4334 2 -0.758019073214408 -4.7446160645048705 3.449796155245386 5.8963232286099165 94 -240 13
7722 1 0.4431942085552019 -4.64916316931316 2.737172492058038 2.5249691836645693 94 -240 14
8187 1 0.4241308600012702 -5.452113635618426 7.271874789156815 2.7016353314716883 94 -240 14
3600 1 0.4191278505748748 -4.475746373668495 3.177205794367315 5.032097597688278 94 -240 13
7778 2 -0.6903325463515998 -4.334845199631207 2.3608360899829246 3.3778023447027783 94 -240 14
8275 2 -0.8585451539008387 -7.721491622751374 4.585440309242271 1.7438662816391 94 -240 14
8183 2 -0.8666604889798899 -4.87799471079552 7.248618154349284 1.8934553953001145 94 -240 14
7779 1 0.40968697176263746 -3.3580948336560956 2.1838051809185055 3.273593841142363 94 -240 14
3599 1 0.38957909242879035 -2.8971014600739613 3.61696658267297 6.417713787004766 94 -240 13
3596 2 -0.7765412483916139 -1.9780212911534578 5.156864953091366 7.896773535941776 94 -240 13
7777 5 0.5805295802783724 -2.434929772499114 7.035987962149661 3.3345516087882174 94 -240 14
3592 4 1.474743309686799 -1.0068129635879632 4.467355180451305 6.96518764195664 94 -240 13
3595 2 -0.7977972297754661 -1.9229040131644037 3.402627076203081 6.265714429341253 94 -240 13
3593 2 -0.8052375450005936 0.2815379958262749 4.02104454365736 7.719145843904976 94 -240 13
3594 2 -0.7769155920558677 -0.5609268114930703 5.365023809526768 5.765224997388987 94 -240 13
3598 1 0.3746842726122801 -0.2086796885078428 4.76717039132506 5.0266937705470465 94 -240 13
7754 2 -0.7340760725665733 0.3805793101931112 4.003358468827492 3.6264520471237973 94 -240 14
3940 1 0.3667666886569192 1.649147878669888 7.374714218547994 7.923170280128894 94 -240 13
3936 2 -0.7538982301744994 1.8368577039093417 8.391273186671615 7.68376812441469 94 -240 13
4239 1 0.3857632139514432 3.2962723952015143 5.958592818851751 6.415479076184208 94 -240 13
8261 1 0.3686845807639333 2.2882926891321205 5.649834293754128 4.163825312315358 94 -240 14
8257 2 -0.7514284192822265 2.951951588434463 6.335951605162375 4.2824789108600205 94 -240 14
7755 1 0.33617715584208324 -0.3804740915417941 3.451257572099202 3.7038350556287236 94 -240 14
8235 1 0.40334669700257947 1.3652912198492828 3.124051362930829 4.268844638247536 94 -240 14
8448 1 0.3060592693614854 1.4867964245047762 5.676132974774157 2.59193096338909 94 -240 14
8752 2 -0.8753946713440227 -0.003224329724837105 8.202000544055497 1.8761064019184226 94 -240 14
8262 1 0.33896494113835035 0.9619145752960385 8.188858560006516 1.9027349809110254 94 -240 14
8258 2 -0.8166223820997622 3.3225947470083597 7.899723702667142 2.1448947167754513 94 -240 14
7718 2 -0.6763945847804321 2.1170844428130433 2.418705365784187 4.676357601794223 94 -240 14
8445 2 -0.7501543367923231 2.141327003155462 5.8754847998458315 1.8332588325820405 94 -240 14
8444 2 -0.7852907841224089 3.187631573724566 2.8053165720269018 1.5696210723443222 94 -240 14
8189 1 0.37858474909896583 2.692807517272101 7.615226718824784 1.4501401875973199 94 -240 14
3699 1 0.37743857193874036 -0.7290878898288344 1.9748932824567276 6.369215537464904 94 -240 13
7721 2 -0.7992783542046391 -1.6752155327489247 1.8959976004434733 3.3654802123424856 94 -240 14
7738 5 0.6792133774798348 0.6812070690938956 2.617512929746105 1.4126568545303297 94 -240 14
4236 2 -0.722651589002323 3.561496955319816 6.558951302013231 7.2292648163206445 94 -240 13
4233 3 1.4237855329517137 3.9799896388147378 8.348054117346724 7.134649864651101 94 -240 13
8254 4 1.2043969593251722 3.8153726204937595 6.62154021672746 2.927048439777845 94 -240 14
8256 2 -0.767499936849029 4.372501521346919 5.389911847257881 2.190150083222937 94 -240 14
3983 2 -0.7698370238633925 6.186665868650891 4.563645042276315 4.957074915624471 94 -240 13
3987 1 0.35771660831286645 6.204696953743719 5.312813327953757 4.335832676083426 94 -240 13
4234 2 -0.7186710457241476 5.803991765178662 8.224591598048926 7.520576880384042 94 -240 13
8259 1 0.35087143412552346 5.743274385203701 6.957172739180488 4.538605935512752 94 -240 14
8255 2 -0.7024512640652227 5.605713220207843 7.3395823973747305 3.63111711084582 94 -240 14
7762 5 0.6705811063371011 5.530515886691743 3.0297780699154844 2.606261910698649 94 -240 14
8099 1 0.337868434790013 8.474323733191927 6.6437328566008125 6.132380656504058 94 -240 14
3982 2 -0.7988465676270474 7.688532269295425 4.338359454057279 7.165705199134198 94 -240 13
3986 1 0.33289293771370754 7.715520596493697 5.264165364892866 7.558268225594852 94 -240 13
4237 1 0.3329536493223411 6.590994236219288 8.546046321701398 6.962722080222434 94 -240 13
3979 4 1.2900951347121319 7.606493502025952 4.264579507188816 5.6029097969762 94 -240 13
8095 2 -0.6267442362892522 8.110717193578694 6.344135714463289 5.312566736451659 94 -240 14
3980 2 -0.6814406572565763 8.886785721372895 4.376107908199561 4.761134711911552 94 -240 13
3749 2 -0.8076947497405722 8.977131591818456 7.830236308170132 8.021939017357575 94 -240 13
3985 1 0.3142621348661788 7.982509336221835 2.1308840617847924 4.531605720143659 94 -240 13
3981 2 -0.740680494895629 7.467526381386669 2.1936984766328598 5.457495585674689 94 -240 13
3753 1 0.3477741521119246 9.72547475840242 7.535662353528854 7.4498553024181895 94 -240 13
3234 1 0.32155535757340087 12.137417471107632 4.95088188051219 7.913381179355178 93 -240 13
7271 1 0.39818804806362296 12.212986230218394 4.612899128294293 6.45060082158481 93 -240 14
8098 1 0.38519422295667066 11.481241207482725 7.077517772021217 5.377916573281326 94 -240 14
8094 2 -0.7926928593182473 10.501635901728115 7.1088936217176695 5.253567281440899 94 -240 14
8092 4 1.1948642116589006 10.02790475058151 5.849465851535699 4.365946041635313 94 -240 14
8096 2 -0.7061596329614199 11.356034429182106 4.901782570135855 4.467378458963335 94 -240 14
8093 2 -0.6846497760267684 9.912357962291573 6.179579470948158 2.8040794101229967 94 -240 14
8097 1 0.4036158592059363 10.305278409647823 5.400928241369287 2.251761379949486 94 -240 14
3232 2 -0.7194561964318106 12.779868130353591 4.85574062872894 7.199705046196657 93 -240 13
8100 1 0.3700745355546625 11.691904598106028 4.721524755596133 3.579033139501138 94 -240 14
3357 1 0.403950236807357 12.032809833840947 2.1262078652772063 7.640567508067516 94 -240 13
2361 2 -0.8201305079532517 13.152764007356655 7.30180830547528 6.154294836864457 93 -240 13
2365 1 0.38786595070390256 12.851787058479413 6.396797238112911 6.496103667666031 93 -240 13
8552 1 0.35634836074396026 13.723228862635679 3.4381281703956317 3.063281885781712 94 -240 14
8549 2 -0.7601958185637118 13.596636819807877 4.029367668334022 2.2318299674616453 94 -240 14
8007 1 0.3989684334632442 15.931880331809985 8.21979525880963 2.8358313459999183 94 -240 14
2359 4 1.3341897522819786 14.378821643377886 7.871704591055108 7.007073561590553 93 -240 13
7268 2 -0.8437899094403083 15.144395153790516 3.094126165082992 5.400333220399336 93 -240 14
3233 1 0.39366630189056623 14.524515426132439 4.16583290792043 8.018817103747807 93 -240 13
2363 2 -0.7911211072748938 15.660997516208663 6.908756768920464 7.1390664392682135 93 -240 13
2367 1 0.31075429918520536 15.390956066744199 5.95908159787831 7.097228244523584 93 -240 13
8554 1 0.3189451807686345 9.844568364981324 3.5782265349212796 1.4255344685007998 94 -240 14
6747 1 0.42591537582250144 15.960006446915205 4.571226818548416 4.688187081368778 93 -240 14
6625 5 0.6859922262915524 16.069653663111136 3.795786892037972 1.8464363307703422 93 -240 14
7444 2 -0.8196440654909704 16.196630954304222 7.275281672168196 2.4749163826561604 93 -240 14
7272 1 0.3457425853306572 16.032797073288297 3.0029825673340396 5.886849025195128 93 -240 14
7447 1 0.3896135253444128 16.26307903107781 6.689479079474464 3.32747421635672 93 -240 14
6748 1 0.3811793814010842 17.33732107773852 6.582728269252576 6.44529135387562 93 -240 14
6745 2 -0.8749984766694043 17.583953241939774 3.8288269832961754 6.280282712655098 93 -240 14
6742 4 1.429770055665443 18.001123054754515 4.90390824223889 5.284050034323101 93 -240 14
6743 2 -0.8228965332612008 16.690625357852483 5.146266320735375 4.409841562310679 93 -240 14
6744 2 -0.8067557417102776 18.186556747947712 6.313102973118199 6.010960418806485 93 -240 14
6831 1 0.38153368302496316 17.40933115790744 8.313286882938012 6.039836446389074 93 -240 14
7515 2 -0.7698395946012506 18.228685281686356 2.587694306272969 2.713690699820896 93 -240 14
7518 1 0.30581312146516626 17.696757793868052 2.3008288726712234 3.5409694350377268 93 -240 14
6750 1 0.3715876346224894 18.782897654331165 4.003675084379894 3.4885436128160703 93 -240 14
6746 2 -0.8125320599545709 19.144909768016618 4.591363795659257 4.245599733304763 93 -240 14
2326 2 -0.7879485907513066 20.7508043622054 7.607538267029927 5.989126882079834 93 -240 13
2330 1 0.4141130202930313 19.88598721697226 7.139605761253662 5.780244415864388 93 -240 13
2323 4 1.400933607668965 20.79030373043396 8.038123007739326 7.5136394251840315 93 -240 13
7633 2 -0.8587076889574067 21.924876976475765 6.933783025418603 3.5506974020604414 93 -240 14
7637 6 1.3913823405634005 21.725032624432483 4.81242327797213 3.0720020117551883 93 -240 14
7635 1 0.4055821993135516 21.658057846819396 7.256435364784183 4.411021444218403 93 -240 14
7516 2 -0.899063360059309 21.160326068140776 2.904164731203168 2.063924356927928 93 -240 14
6749 1 0.33141943217538194 19.872294339611106 2.8329769335423935 7.5011366881614014 93 -240 14
7446 2 -0.8175507758725434 19.226425021554526 7.972421352176925 1.4580790197664175 93 -240 14
7519 1 0.2998179504976242 21.90397277565098 2.990957496221693 1.3305477457312351 93 -240 14
7632 6 1.2797402072595006 21.694434387649633 7.871714840471345 1.3886414314979847 93 -240 14
2325 2 -0.7898472909588948 22.215223188122845 8.406993055339843 8.038196834579459 93 -240 13
3235 6 1.275387776372611 24.726204194302895 3.8416270219029736 6.93313788637029 93 -240 13
3239 1 0.39940186447713094 24.162683100591686 6.842884429154324 6.590198566820964 93 -240 13
3237 2 -0.7656460588133351 24.40378731690459 5.964825556678529 6.290327545282414 93 -240 13
6653 2 -0.6727232447442394 22.925803464710285 4.173472260179408 5.273175684679112 93 -240 14
6654 1 0.3592940449807618 23.11903470525251 5.085572199277893 5.515121547346605 93 -240 14
7260 1 0.4415606583917762 25.18066988139877 6.713285968628617 5.081696652582778 93 -240 14
7177 2 -0.8586644996470557 23.754638072847612 4.585347723313561 1.7439485863551125 93 -240 14
2688 1 0.378925003699501 27.03900761972659 6.494275879740689 8.022566725960036 93 -240 13
7261 1 0.4113764745161741 27.087349365297754 8.38741477316561 6.735413626736056 93 -240 14
7256 2 -0.8226447701914441 25.642533859449337 7.452443191644709 4.511829466889906 93 -240 14
2219 2 -0.7715830575123706 26.759873948133375 4.950675504744183 7.953743173809852 93 -240 13
2499 1 0.41335221011855555 27.70149288104193 4.74743850833042 7.849509623288159 93 -240 13
3236 2 -0.7577900573034966 26.731700898750056 3.4511932146463193 5.895614145697083 93 -240 13
6624 1 0.4431948114527581 26.82905672423233 2.7375846088713147 2.5246993792448107 93 -240 14
7089 1 0.42429455944160344 26.02318462138384 7.271542570627147 2.701808014882067 93 -240 14
2502 1 0.41926814242502397 27.00145627591774 3.1794373370721507 5.031615236384403 93 -240 13
6680 2 -0.6903991933197644 27.14485701196599 2.3625284948784744 3.377392794750126 93 -240 14
7085 2 -0.8663136367775004 26.597574118858567 7.248611572145051 1.8936043884737335 93 -240 14
6681 1 0.4097008941005726 28.121737047075783 2.185752399639428 3.271607779418523 93 -240 14
2501 1 0.3896435769121203 28.581874115124002 3.6179822768065213 6.41944216393603 93 -240 13
2498 2 -0.7773361358536172 29.499125054656105 5.15499092747533 7.898295727892488 93 -240 13
2494 4 1.4757993653155828 30.471033504443 4.469492867703822 6.964595234410108 93 -240 13
2497 2 -0.7972247067513485 29.555071532598284 3.403800104398427 6.265259509755544 93 -240 13
6679 5 0.5803168493901117 29.04411188432985 7.03618568423223 3.3338664005399186 93 -240 14
2495 2 -0.8051476271260569 31.75806638156616 4.020596831178528 7.719038641550391 93 -240 13
2496 2 -0.7780085480115032 30.914132858171357 5.3647185138564915 5.7630953084721 93 -240 13
2500 1 0.37540546504179434 31.27130603790912 4.767712447188137 5.025523116061153 93 -240 13
6656 2 -0.7339687625234496 31.860922891092997 4.007830666669751 3.6272962364823584 93 -240 14
6657 1 0.3357162770651564 31.09829836532503 3.4575723640168707 3.70424200981664 93 -240 14
7137 1 0.4039311443384492 32.84584921374396 3.124966404368948 4.268505801196808 93 -240 14
7350 1 0.30407938025622727 32.952702930657246 5.684079394445355 2.5734368773658325 93 -240 14
7654 2 -0.8760730695975338 31.472344140803926 8.197342918493376 1.873038015877088 93 -240 14
7164 1 0.3397133306224579 32.43730640594176 8.177423162190461 1.9002728935065072 93 -240 14
7163 1 0.3695397790628368 33.752298768488494 5.668199647263444 4.139654796491383 93 -240 14
2842 1 0.3663261037364146 33.119232129592 7.378486431355114 7.930886350015664 93 -240 13
2838 2 -0.7537600157003252 33.308655393498164 8.39412182380412 7.687138053023786 93 -240 13
3141 1 0.38687070527065104 34.77896655327384 5.950773156519524 6.406375022108821 93 -240 13
7159 2 -0.7497592198776616 34.42249864998508 6.335945186862282 4.282235334007092 93 -240 14
7160 2 -0.8148351176644641 34.79993511040478 7.904736662004341 2.148790791839364 93 -240 14
6620 2 -0.6759462342298189 33.59500713567858 2.41807202530776 4.676453590248137 93 -240 14
7347 2 -0.7508969634811714 33.61851405351084 5.880928145080493 1.8239302309100154 93 -240 14
7346 2 -0.7850491349994106 34.66446087647223 2.8055745417352864 1.5710383897005504 93 -240 14
7091 1 0.37802529682729263 34.18292473104512 7.609718310178021 1.4445780203427352 93 -240 14
2601 1 0.37747788267633325 30.7474322377659 1.9746777504950048 6.368945875378178 93 -240 13
6623 2 -0.7994573644053005 29.80372385824144 1.8994565471813445 3.363836856786449 93 -240 14
6640 5 0.6790155387436461 32.157643477670696 2.6195946208733325 1.4123774504316584 93 -240 14
3138 2 -0.7226438156133206 35.038446641506745 6.55263021016593 7.223891467073823 93 -240 13
3135 3 1.4228637722514197 35.44999626158428 8.344291333510675 7.13301355615055 93 -240 13
2889 1 0.3561976816715298 37.68359390054723 5.309822222321481 4.334505560929635 93 -240 13
2885 2 -0.7697716100281119 37.6637152027171 4.562666265529212 4.960100146552646 93 -240 13
3136 2 -0.7132623916463713 37.27588756045981 8.219340402084175 7.518489524583973 93 -240 13
7161 1 0.34908057525398883 37.224246331215106 6.948838436215231 4.530734676271751 93 -240 14
7157 2 -0.7027042143397577 37.084136291508386 7.336752676880858 3.6265390479670785 93 -240 14
6664 5 0.6706063043994909 37.007933304118524 3.0303444283922474 2.6086339917762 93 -240 14
7156 4 1.1998113533950532 35.29215038782152 6.622907209146299 2.926739851027077 93 -240 14
7001 1 0.3368407309589979 39.95348541060096 6.639721140474434 6.134092418391672 93 -240 14
2884 2 -0.7993069439939743 39.16731280650628 4.335669949604071 7.167009868468087 93 -240 13
2888 1 0.33212232396358815 39.19598445189091 5.26103628509711 7.561603725215678 93 -240 13
3139 1 0.32823933032622427 38.05189424151847 8.432925545368832 6.88816421196517 93 -240 13
2881 4 1.2900960683536076 39.08355786685593 4.262057791231365 5.604847886420375 93 -240 13
6997 2 -0.6283987522374381 39.58641587779879 6.34216586867612 5.315665727473781 93 -240 14
7158 2 -0.7668147923160723 35.847480838790545 5.390938718815876 2.1900955574163574 93 -240 14
2883 2 -0.7407844931763438 38.943157736344624 2.191130004947635 5.456377260302429 93 -240 13
2651 2 -0.8061406935703365 40.45523608335753 7.829155886291784 8.02240367292767 93 -240 13
2882 2 -0.6815860033066753 40.36328725061274 4.374084088077737 4.76285195078499 93 -240 13
2887 1 0.3144384032478912 39.45884684563445 2.1293670679637398 4.531212604256552 93 -240 13
2655 1 0.3477421867090296 41.195799940693625 7.528421634753343 7.444154006389479 93 -240 13
7000 1 0.38516632325100986 42.95461852355746 7.078271652385909 5.378458769981112 93 -240 14
6996 2 -0.7929491689096737 41.975235270967666 7.1074404298149725 5.2553322776783205 93 -240 14
4332 1 0.3213890105583619 43.61800881803761 4.954886085310012 7.912636762243816 93 -240 13
4330 2 -0.7194825968997212 44.25965588854001 4.856595098483375 7.1986223459300165 93 -240 13
3459 2 -0.8201114924927048 44.627202643933124 7.302746528417906 6.154041545533469 93 -240 13
3463 1 0.3877720528461898 44.327258283849766 6.396759749644673 6.495120125441796 93 -240 13
8369 1 0.398039214291253 43.69144277931871 4.613164588512077 6.450543476432592 93 -240 14
6994 4 1.1951293620066028 41.502847704218304 5.848096188379861 4.366364832173264 93 -240 14
6998 2 -0.7060562362853469 42.83212562780541 4.9020432277827855 4.4666445076216945 93 -240 14
7002 1 0.37001210262214457 43.167096722378005 4.720542183141948 3.5779199279111378 93 -240 14
7454 1 0.356323313550057 45.199661579637414 3.437091903515898 3.063409652330682 93 -240 14
6995 2 -0.6842714124671386 41.38681890194215 6.178877096812293 2.8050419056804614 93 -240 14
7451 2 -0.7600105743261424 45.07321761178921 4.029512545530833 2.232385834491718 93 -240 14
6999 1 0.40370300681544274 41.78123237350034 5.400828232777995 2.2525531102515397 93 -240 14
2259 1 0.40387262715497757 43.508749998713185 2.127201752449524 7.63959942723108 93 -240 13
3457 4 1.333448939867734 45.85343300351054 7.872549757919113 7.00587007463624 93 -240 13
8366 2 -0.8437499810398879 46.62081827369414 3.094602877624292 5.4007495263965115 93 -240 14
4331 1 0.39388700701922863 46.00213500646879 4.165902344834853 8.01849859038736 93 -240 13
6909 1 0.3993414725169494 47.401221905349566 8.2175782154154 2.83265192375921 93 -240 14
3461 2 -0.7911519784289588 47.13598733810869 6.909606833306435 7.138535394219873 93 -240 13
3465 1 0.3108017330367261 46.8659314728371 5.9605590291762365 7.098348648600848 93 -240 13
7456 1 0.3189903178077972 41.3210903336708 3.5782828073573847 1.4271265690285446 93 -240 14
3423 2 -0.7897529759201154 53.69137136581802 8.406753222355395 8.038373000968768 93 -240 13
7845 1 0.4261518694483622 47.435757440925975 4.572412432516607 4.688682792257383 93 -240 14
7723 5 0.6860794876493558 47.546200203998076 3.7956605301566153 1.8465766258909189 93 -240 14
8542 2 -0.820127345235537 47.67245609289256 7.274076571597594 2.474613440329107 93 -240 14
8370 1 0.3458979233156255 47.50920012873329 3.0037687635448345 5.887124751397929 93 -240 14
8545 1 0.389930212060978 47.73827121876168 6.689536650413559 3.3271485795238473 93 -240 14
8733 1 0.4054632274941918 53.13420683337794 7.25668685425029 4.411183951216207 93 -240 14
3424 2 -0.7880266128467193 52.227177047891594 7.6078486898441895 5.989457356836011 93 -240 13
3428 1 0.41389667093726823 51.36273798414351 7.13962134383709 5.780366079659043 93 -240 13
3421 4 1.4007655202713756 52.2662483641103 8.0384669478076 7.513977657289526 93 -240 13
7846 1 0.38132943566604993 48.81180768895902 6.5826774009391205 6.444200780952563 93 -240 14
7842 2 -0.8069701257388633 49.66145705509716 6.313732411518664 6.010602837698994 93 -240 14
7843 2 -0.8750564733595847 49.05990679001272 3.8289027229829995 6.280065880505025 93 -240 14
7929 1 0.38170367465812277 48.88849739343168 8.312354219260122 6.031936020964271 93 -240 14
7840 4 1.4299344811718306 49.47733944844122 4.904054544830517 5.284234840758367 93 -240 14
7841 2 -0.8230164354273835 48.166984568137686 5.145976620871949 4.410293477373838 93 -240 14
7844 2 -0.8124063922419412 50.62136559846814 4.591593465155791 4.24570963067772 93 -240 14
7848 1 0.37158841087291633 50.25935920017321 4.003978147028658 3.4881873405477424 93 -240 14
8731 2 -0.858714442831324 53.40095442034876 6.933925934352507 3.550690582486527 93 -240 14
8735 6 1.3913200598991973 53.20114159971546 4.812641958556705 3.071713845231442 93 -240 14
8613 2 -0.7698545049638318 49.7051631448617 2.5880305079587282 2.7139671374409975 93 -240 14
8614 2 -0.8990729777526751 52.63667631659788 2.9043403560697545 2.064049783480015 93 -240 14
7847 1 0.33153690111430517 51.34815474429715 2.8325074257451064 7.501191647858216 93 -240 14
8616 1 0.30581663358919 49.173857336405135 2.301388327645307 3.541771229224122 93 -240 14
8544 2 -0.8174876353798287 50.702169750920056 7.973217962627345 1.4573365775083627 93 -240 14
8617 1 0.29974079638968354 53.38030528769 2.99110963298984 1.3305816363057388 93 -240 14
8730 6 1.2798324024894148 53.17029606411902 7.871863099251285 1.3886526511652788 93 -240 14
8357 2 -0.9036561971204277 -7.052953647377951 8.7056197811421 6.326985869733384 94 -240 14
8361 1 0.45394280586674196 -7.793337188699911 8.767899897578646 6.988700535302599 94 -240 14
8353 4 1.5758334917558776 -5.937601310070962 8.780754398536036 5.317473972738607 94 -240 14
8355 2 -0.9091742827552622 -4.508363179323441 8.93533160040223 5.9362817002331685 94 -240 14
6280 1 0.39933745190361514 -5.764120269866286 12.726732346899736 6.102583727806238 94 -241 14
3902 2 -0.8442386900351312 -5.774166672707739 12.042755821896975 8.208903108216367 94 -240 13
3419 1 0.42313555523122154 -3.8449151161188633 12.037012948200882 7.607747722643918 94 -240 13
3415 2 -0.8884927612178894 -2.956433801822909 12.307605109177494 7.330073406233332 94 -240 13
3899 2 -0.7926149854382216 -7.469377137806828 13.579652326797728 7.097487370001509 94 -240 13
1725 1 0.41533387778481046 -3.763087382528659 14.229450056379203 7.1874802841565195 94 -241 13
1721 2 -0.8532483954860898 -3.875784081749118 15.171071366547848 7.485000035410531 94 -241 13
1722 2 -0.845929901088306 -4.002443755799784 15.23309147806248 5.202905078581084 94 -241 13
3903 1 0.3954966878529068 -8.338256079155437 14.017884852567365 7.153235589029838 94 -240 13
3898 4 1.4629645894539274 -7.259723127718805 12.520134952065009 8.224247972249348 94 -240 13
6277 2 -0.7471972941072056 -5.150017557048489 12.4039311916997 5.349227517879452 94 -241 14
6275 3 1.5134201666585165 -4.303813950424131 13.837209437786646 4.137357295494889 94 -241 14
5697 1 0.32908320015875997 -5.636152867130544 11.616540071117818 4.886031732403966 94 -241 14
7780 5 0.6297247199355711 -3.231795945860802 9.830815858147512 3.49901415803325 94 -240 14
8356 2 -0.928207884771103 -6.203265371616998 9.860257926006815 4.2496178028784755 94 -240 14
5690 2 -0.7192529368313328 -6.130657469816278 14.162445557379195 3.939222278895494 94 -241 14
7695 1 0.35581986648932806 -7.887408652681033 9.397549469043586 2.926017554267304 94 -240 14
8360 1 0.38904971243038944 -6.114562191114951 10.355894239463197 3.405232771768739 94 -240 14
5689 4 1.2328296927438602 -7.682103608405895 14.700765336925745 3.8991006502796304 94 -241 14
3901 2 -0.8290569039969189 -8.324273809905048 11.472826697144711 7.802529996598735 94 -240 13
7694 2 -0.7663004270568683 -8.688513382165807 9.609782671048798 2.4652742811416832 94 -240 14
5692 2 -0.7232831251452512 -7.591663849424233 15.354690409511889 2.484215513737602 94 -241 14
8116 1 0.39950243958227705 -8.263948120497211 10.953637062369475 1.7760042970952021 94 -240 14
8111 2 -0.842803773044336 -5.593446832443158 11.235914043141804 1.8227672131309265 94 -240 14
5696 1 0.33744188886279514 -7.090863041709861 14.725295479992319 1.8859923714837783 94 -241 14
8112 2 -0.7394414429153693 -8.040381659894171 11.939106246082131 1.4486962318989474 94 -240 14
7693 5 0.6627617704129778 -9.154626495735402 10.945979610926363 4.722439793481471 94 -240 14
8115 1 0.3444064318088783 -4.962794719486534 10.68123968057167 1.3197277235748928 94 -240 14
6281 1 0.3557052574738638 -2.862700564008933 11.943536972831216 5.308885197914924 94 -241 14
3418 1 0.3865707473178608 -2.7161598917279495 9.68242402874532 6.432832572116635 94 -240 13
6278 2 -0.7568252341102704 -2.8644565255389534 12.376366677029072 4.381373802680859 94 -241 14
6276 2 -0.7360617891945398 -2.666285759954355 14.405073516313301 3.261262992597585 94 -241 14
6279 1 0.34165682675681364 -2.390985304658801 15.388703005663093 3.228353071372787 94 -241 14
7750 5 0.7082025907315995 1.4198995795982317 9.14042579523509 4.643082255116741 94 -240 14
3412 4 1.593282790214919 -1.8909051247272455 11.223677608809572 7.656422113215619 94 -240 13
3414 2 -0.8396216081122649 -1.888025563567278 10.21466916860188 6.457576745363771 94 -240 13
3416 2 -0.8057506146106423 -0.510871618069908 11.814398721143958 7.9981872533292835 94 -240 13
4241 2 -0.6995263627439838 0.15701140809821723 13.256090894885586 6.201398195027188 94 -240 13
4244 1 0.25895912065984394 -0.039312200121534246 14.204728974784356 5.797265055329558 94 -240 13
8778 1 0.31883803693235513 1.8151049130428127 12.383884902688134 4.597824281464318 94 -240 14
1541 2 -0.7842488525608815 0.9595034716930257 15.014602471489045 7.606724357587189 94 -241 13
4240 3 1.5553170297104812 0.6370766148822469 13.309760587177612 8.16405430738213 94 -240 13
8776 2 -0.748807916266385 1.7511768421785092 11.50705172734117 4.229758872378648 94 -240 14
8775 6 1.3103716396721776 -0.541310704531325 13.156444243755272 3.928427055071032 94 -240 14
8648 2 -0.809759938865432 1.5816655171845966 14.339257416054991 4.16823773671061 94 -240 14
8646 3 1.3935180165805292 2.5990148624512255 14.21814055648621 2.5120724159958057 94 -240 14
7781 2 -0.8079616416457112 0.7824535195420115 13.653532747542764 1.9460276219985757 94 -240 14
8264 2 -0.8580983484687487 -1.731458701257405 11.940040558208414 1.6697935630983836 94 -240 14
8651 1 0.4041345570140091 1.7913000759553412 14.929423322352289 4.966292226282787 94 -240 14
8268 1 0.3673942318403834 -2.3203933734908873 12.73702463393231 1.5620837073707103 94 -240 14
8478 3 1.5208599397292555 6.69784399414236 8.859770059034286 2.8740262069404947 94 -240 14
8751 2 -0.8202264772200277 3.5734999099200078 9.386028993462878 5.763953704838913 94 -240 14
8750 6 1.331177207390669 4.265955148542311 11.023976818027247 4.470841810720415 94 -240 14
8647 2 -0.7849700721886922 4.064206906277489 13.045319691180401 3.1175261876955 94 -240 14
8484 1 0.3365017711182323 4.4238116533688725 9.670884687673457 1.837492720702008 94 -240 14
8480 2 -0.7524658813656663 6.288791659722092 9.627331433012607 4.6275376710921226 94 -240 14
4235 2 -0.7137577531664848 5.887599711784764 13.38627666783542 7.88392894367713 94 -240 13
8753 1 0.3836835121389793 6.369271662599186 12.643909698850873 6.545443940378137 94 -240 14
8779 1 0.37905340316579994 7.431417423735045 11.55590500718526 6.060104005851665 94 -240 14
8777 2 -0.7676004984310135 6.685832675352636 12.083838298222082 5.736483199544234 94 -240 14
8650 1 0.24736575397542923 4.801602324179722 12.776236407246566 2.455359864135467 94 -240 14
8483 1 0.35475790748045816 6.999102312639792 9.92710823795311 5.293371967401015 94 -240 14
3652 1 0.41149771399218815 8.944234879556848 9.41958411179608 6.990330824480574 94 -240 13
3298 5 0.6844672106649878 8.919437828297625 14.416164041891486 6.148202224456576 94 -240 13
3648 2 -0.7586434096926501 9.065016781123724 10.35203421272458 6.711798479055783 94 -240 13
8004 2 -0.7800938697561666 9.510410444669596 11.731783151735016 2.6913844011674746 94 -240 14
8003 2 -0.816997944098575 8.377608071614869 9.54682236716572 2.8224088881150946 94 -240 14
6628 5 0.6397813475776255 7.4762916710564085 15.174284439131169 2.531613143512889 93 -240 14
8481 2 -0.8248664467741809 5.1920279291834905 10.04760809744763 2.417458147731921 94 -240 14
3653 1 0.39002487250530726 9.565656332418865 11.972201585241537 1.7320910632738096 94 -240 13
3300 1 0.32260530705068174 6.476756070885074 15.092637556488976 8.233493746112984 94 -240 13
8009 1 0.39917445433820975 10.469764811693057 8.962682508361414 4.473106377952049 94 -240 14
8005 2 -0.7463817103671485 10.608183721480628 9.895535001255165 4.195199286158383 94 -240 14
8641 2 -0.7022492049849998 11.069694304055584 13.767057289880489 4.681702417453009 94 -240 14
8644 1 0.3909412218919955 10.663056644490265 13.090901124982109 4.025978864480267 94 -240 14
8642 2 -0.8229229099183691 11.28093481868801 14.794622679907059 7.255315331478071 94 -240 14
3646 4 1.4989111823722612 10.365561117399341 10.916224785936524 7.417650548328225 94 -240 13
3650 2 -0.8058161058398603 11.491976685473773 9.954565872754726 7.966872864578241 94 -240 13
3649 2 -0.9501066748055839 11.173510848309157 12.027487856271758 6.765514555484847 94 -240 13
8639 3 1.4876105102817325 12.053002662613423 13.46527022930619 6.215055355119615 94 -240 14
8002 4 1.4365646308424846 9.776580036392847 10.19263166887778 2.8801377250226654 94 -240 14
8006 2 -0.8069856124701172 10.564358217758091 9.596807792807923 1.660829775116594 94 -240 14
2362 2 -0.8760607131260695 14.915790260646187 9.107008778250737 6.197446377691262 93 -240 13
8643 1 0.15267360461015242 13.158560542130672 9.42467240663242 5.323776021301812 94 -240 14